84
Properties=species:S:1:pos:R:3 Conformer=T 857:=T DA1=140 DA2=190 DFT_energy=-54131.58850430603 pbc="F F F"
N       -8.33034000      -3.34365200      -0.19515000
C       -7.07675400      -2.67705700      -0.14487600
C       -5.90340700      -3.36957400       0.11130300
C       -4.68615000      -2.71808000       0.15688000
C       -3.50302300      -3.39068400       0.41202600
C       -2.30080600      -2.69237700       0.44637900
C       -4.63017500      -1.36483900      -0.05459800
C       -5.78554100      -0.61308900      -0.31842200
C       -6.97618800      -1.32070100      -0.35028200
C       -3.44238100      -0.70022000      -0.01662600
C       -2.25385200      -1.33668200       0.23203500
C       -1.03284900      -0.55993900       0.25713700
C        0.21388100      -1.18774900       0.29908300
C        1.37867100      -0.43975600       0.32701300
C        2.65733100      -1.16709900       0.37434300
C        2.83215800      -2.29193800       1.12547400
C        3.99391100      -3.02391700       1.21070100
C        5.05780300      -2.54466100       0.45081000
C        6.23818600      -3.27530000       0.52384900
C        7.32171900      -2.86199100      -0.19779900
N        8.54748100      -3.61498000      -0.12435200
C        7.22561000      -1.73885900      -0.97851700
C        6.03291200      -1.01354600      -1.04324200
C        4.93578100      -1.42324800      -0.31864600
C        3.72917400      -0.70643500      -0.37475800
C        1.29492400       0.93817500       0.31238900
C        2.49168000       1.72515900       0.33988800
C        3.72411500       1.14826100       0.17845000
C        4.90822500       1.89835700       0.20039300
C        6.13405800       1.31389200       0.03166000
C        7.31491500       2.06285900       0.04770500
C        7.24134700       3.42625800       0.24029100
N        8.39753000       4.25461400       0.27100800
C        6.00469400       4.00019300       0.40843600
C        4.83844700       3.27846800       0.39358600
C        3.59629500       3.87814000       0.55856600
C        2.47093400       3.08630600       0.52607900
C        0.03167200       1.55405100       0.26885400
C       -1.12865700       0.81537100       0.24148500
C       -2.45169000       1.41470900       0.19552600
C       -2.85048700       2.52342700       0.89002600
C       -4.13004400       3.03526000       0.79970000
C       -5.06576200       2.43864000      -0.00436800
C       -6.36212900       2.86349200      -0.16577900
C       -7.29079500       2.24733100      -0.98238100
N       -8.60219800       2.75655400      -1.07652200
C       -6.88653800       1.11538300      -1.69303400
C       -5.59738000       0.67047400      -1.54913200
C       -4.69774700       1.30169000      -0.73165800
C       -3.41301000       0.82661800      -0.61218200
H       -8.74022200      -3.70134900      -1.10516600
H       -8.92366900      -3.52612900       0.64441700
H       -5.92934400      -4.43869100       0.28151600
H       -3.57391100      -4.45811300       0.57403300
H       -1.41119700      -3.27318600       0.65017800
H       -5.74842100       0.45491000      -0.48622500
H       -7.89524600      -0.77939500      -0.54795400
H       -3.43721700       0.38066300      -0.19459800
H        0.25573300      -2.26724600       0.30654400
H        2.00109300      -2.69195600       1.73156700
H        4.04075500      -3.89030500       1.82531300
H        6.32239700      -4.16105000       1.13394900
H        8.93666400      -4.13112400      -0.93771600
H        9.06677700      -3.64989600       0.76547300
H        8.08874000      -1.41724100      -1.54870900
H        5.98875000      -0.15355400      -1.65926000
H        3.69945500       0.15991400      -0.99147300
H        3.83220700       0.10247500       0.02862900
H        6.17279300       0.24623700      -0.11307200
H        8.28739200       1.61977000      -0.08622300
H        9.26001100       3.91976200       0.74377200
H        8.39214700       5.17848800      -0.16946800
H        5.93263000       5.06694600       0.56262700
H        3.56000800       4.95492600       0.70514200
H        1.51974000       3.63324100       0.66427200
H       -0.02604200       2.62400700       0.25557000
H       -2.13323900       3.01072200       1.53011000
H       -4.42999500       3.92549800       1.36842900
H       -6.66574300       3.74673100       0.38684400
H       -8.88902000       3.29689700      -1.90944900
H       -9.27172900       2.57709100      -0.30276300
H       -7.62914600       0.65678600      -2.32098000
H       -5.29212100      -0.21985800      -2.11200000
H       -3.17271800      -0.05929200      -1.19495600
