84
Properties=species:S:1:pos:R:3 Conformer=T 78:=T DA1=-70 DA2=-40 DFT_energy=-54168.12764331357 pbc="F F F"
N       -6.80630100      -5.71751000      -0.87144800
C       -5.66127800      -4.88162800      -0.77883600
C       -5.66709700      -3.73757800       0.00415000
C       -4.55081100      -2.92877800       0.09349800
C       -4.53600800      -1.78164500       0.86883900
C       -3.38785400      -0.99919800       0.92931500
C       -3.41502700      -3.25736100      -0.60014900
C       -3.35194200      -4.40338200      -1.40777300
C       -4.50201500      -5.17415000      -1.45894500
C       -2.30136900      -2.47734000      -0.52701800
C       -2.25385200      -1.33668200       0.23203500
C       -1.03284900      -0.55993900       0.25713700
C        0.21388100      -1.18774900       0.29908300
C        1.37867100      -0.43975600       0.32701300
C        2.65733100      -1.16709900       0.37434300
C        3.52494300      -1.19136400      -0.67764800
C        4.73659800      -1.84261200      -0.69992100
C        5.07010200      -2.52185500       0.46900500
C        6.29314200      -3.18262400       0.46338000
C        6.68373500      -3.86797300       1.57844900
N        7.94957200      -4.55538500       1.57700300
C        5.86597900      -3.89107700       2.67886800
C        4.63899200      -3.22231300       2.67146800
C        4.23750100      -2.52913600       1.55124500
C        3.00823700      -1.84996300       1.52880100
C        1.29492400       0.93817500       0.31238900
C        2.49168000       1.72515900       0.33988800
C        2.61376100       2.85773400      -0.42178000
C        3.77439700       3.64388100      -0.40997000
C        3.88429600       4.77703800      -1.16932100
C        5.03982300       5.56452300      -1.15318300
C        6.09669000       5.18760800      -0.35173100
N        7.30503300       5.93532200      -0.28310300
C        5.97329400       4.04805000       0.40534500
C        4.84579800       3.26704400       0.40058100
C        4.73724100       2.12144600       1.17877500
C        3.57062800       1.39315500       1.12312800
C        0.03167200       1.55405100       0.26885400
C       -1.12865700       0.81537100       0.24148500
C       -2.45169000       1.41470900       0.19552600
C       -3.30195400       1.39143200      -0.87551700
C       -4.54699600       1.98850900      -0.84780000
C       -4.98436800       2.63980400       0.27584200
C       -6.19976100       3.26601400       0.40926300
C       -6.62220700       3.91757600       1.55203200
N       -7.88813200       4.53725900       1.58915200
C       -5.75651600       3.94272500       2.64734100
C       -4.53684500       3.32513800       2.53976800
C       -4.14424700       2.68649500       1.39345300
C       -2.91327700       2.07810000       1.32212700
H       -6.94059500      -6.55824600      -0.23961900
H       -7.58172500      -5.56455900      -1.55374700
H       -6.55600400      -3.46255200       0.55810200
H       -5.44412000      -1.54517000       1.40743600
H       -3.43818100      -0.11601300       1.55199200
H       -2.45892900      -4.66845600      -1.95770200
H       -4.49946700      -6.06809300      -2.07344800
H       -1.41148600      -2.77466900      -1.09245000
H        0.25573300      -2.26724600       0.30654400
H        3.28294500      -0.65604700      -1.61194200
H        5.35020500      -1.80909800      -1.56763900
H        6.94371700      -3.16840700      -0.39709400
H        8.74102200      -4.27170400       2.18738300
H        8.08627100      -5.36164600       0.94936300
H        6.18243800      -4.43605700       3.56000400
H        4.03234100      -3.25465600       3.53861600
H        2.40436000      -1.89592900       2.40344400
H        1.82817800       3.18785800      -1.05555900
H        3.04989300       5.05390100      -1.79338300
H        5.14218800       6.46049500      -1.74202100
H        7.70329800       6.35310300      -1.14701800
H        7.78827000       6.06959100       0.60911100
H        6.79447500       3.73981300       1.03588600
H        5.58045200       1.84397400       1.80668800
H        3.55764900       0.49561600       1.76908600
H       -0.02604200       2.62400700       0.25557000
H       -2.98105300       0.88599000      -1.77170800
H       -5.21303700       1.96007900      -1.72045600
H       -6.86768800       3.23710900      -0.44556000
H       -8.66995700       4.08743300       2.09354400
H       -8.01985200       5.44882700       1.10865900
H       -6.11117900       4.45582300       3.52314800
H       -3.86560400       3.35234200       3.40659500
H       -2.29446300       2.14084800       2.21394200
