84
Properties=species:S:1:pos:R:3 Conformer=T 778:=T DA1=120 DA2=120 DFT_energy=-54168.330256294226 pbc="F F F"
N       -7.96230300      -3.97659700       1.48843900
C       -6.73298000      -3.26796300       1.41804400
C       -5.84557400      -3.46891100       0.37206000
C       -4.65235400      -2.77602300       0.30596600
C       -3.75194700      -2.96250200      -0.72930200
C       -2.56350000      -2.24062900      -0.75440100
C       -4.33461500      -1.87280100       1.28696000
C       -5.19470000      -1.62870600       2.36875100
C       -6.37511000      -2.35385100       2.38154600
C       -3.16548000      -1.17621200       1.24332100
C       -2.25385200      -1.33668200       0.23203500
C       -1.03284900      -0.55993900       0.25713700
C        0.21388100      -1.18774900       0.29908300
C        1.37867100      -0.43975600       0.32701300
C        2.65733100      -1.16709900       0.37434300
C        2.97454600      -2.02465000       1.38627400
C        4.14456600      -2.74088100       1.49016200
C        5.05586900      -2.54777900       0.45516200
C        6.24214300      -3.26702700       0.54408000
C        7.18030600      -3.12626300      -0.43861100
N        8.41169100      -3.86839700      -0.35024000
C        6.93561900      -2.28200800      -1.49101000
C        5.73871000      -1.56492600      -1.56846600
C        4.78760000      -1.70087200      -0.58180600
C        3.57858600      -0.98883800      -0.64630600
C        1.29492400       0.93817500       0.31238900
C        2.49168000       1.72515900       0.33988800
C        3.37613200       1.63535600       1.38269600
C        4.55376100       2.39440900       1.43033200
C        5.43419100       2.29286300       2.47305400
C        6.61183600       3.04571200       2.51783700
C        6.89178300       3.91437000       1.48419300
N        8.06764400       4.71474900       1.45923100
C        5.99961200       4.00668600       0.44376400
C        4.84178600       3.27365900       0.38589000
C        3.95504500       3.37581900      -0.67854400
C        2.81646100       2.60253400      -0.66636800
C        0.03167200       1.55405100       0.26885400
C       -1.12865700       0.81537100       0.24148500
C       -2.45169000       1.41470900       0.19552600
C       -2.98023200       2.25584800       1.13560800
C       -4.25112800       2.78539700       1.02698400
C       -5.04520100       2.48071500      -0.04757000
C       -6.31991900       2.95002700      -0.25241400
C       -7.10461300       2.63061100      -1.34380900
N       -8.40640800       3.15924800      -1.46137600
C       -6.56764000       1.77238200      -2.30550600
C       -5.29694500       1.28957000      -2.12437600
C       -4.54161100       1.62335800      -1.03163100
C       -3.27087900       1.11956800      -0.88345500
H       -8.86284000      -3.57967200       1.09402300
H       -8.06298200      -4.92042300       1.92348500
H       -6.08017400      -4.17921600      -0.41093800
H       -4.02671200      -3.67957900      -1.49152300
H       -1.90146900      -2.43014700      -1.58871200
H       -4.95011600      -0.91737700       3.14614900
H       -7.06897900      -2.19940200       3.20096400
H       -2.94838800      -0.46007600       2.04334000
H        0.25573300      -2.26724600       0.30654400
H        2.26519300      -2.19626800       2.21416200
H        4.30853800      -3.38747500       2.31817300
H        6.44244700      -3.93481500       1.36736900
H        8.66396000      -4.61627200      -1.02586900
H        9.07572300      -3.65733300       0.40948900
H        7.68385900      -2.17576700      -2.26715400
H        5.57723700      -0.92495200      -2.39634000
H        3.43112700      -0.34353700      -1.47914700
H        3.20385300       0.98206200       2.20204100
H        5.19677300       1.61208600       3.27462100
H        7.31691800       2.97622300       3.32901300
H        8.41245100       5.15300400       2.33589900
H        8.58169300       4.86382300       0.58680800
H        6.20525600       4.68500400      -0.37142000
H        4.19641500       4.06368800      -1.48529500
H        2.15950400       2.73758000      -1.54567200
H       -0.02604200       2.62400700       0.25557000
H       -2.37587000       2.51045200       1.99090400
H       -4.65701000       3.45708400       1.79512700
H       -6.72694900       3.62013600       0.49789600
H       -8.59230400       3.93595900      -2.11724700
H       -9.17082700       2.75513800      -0.88558200
H       -7.19975200       1.54155100      -3.14410200
H       -4.88662300       0.61590100      -2.88628200
H       -2.92222800       0.45708300      -1.67197100
