84
Properties=species:S:1:pos:R:3 Conformer=T 1224:=T DA1=240 DA2=260 DFT_energy=-54168.19999125013 pbc="F F F"
N       -7.59686100      -4.45582100      -1.45833200
C       -6.39651600      -3.70834000      -1.32122600
C       -5.79006700      -3.54136900      -0.08579500
C       -4.62158000      -2.81589700       0.04291200
C       -4.00043900      -2.63641300       1.26735300
C       -2.82387900      -1.89926000       1.34766500
C       -4.04643300      -2.24979400      -1.06517200
C       -4.61592000      -2.38632500      -2.34057200
C       -5.78726200      -3.12317400      -2.40676600
C       -2.89393300      -1.53171800      -0.96453300
C       -2.25385200      -1.33668200       0.23203500
C       -1.03284900      -0.55993900       0.25713700
C        0.21388100      -1.18774900       0.29908300
C        1.37867100      -0.43975600       0.32701300
C        2.65733100      -1.16709900       0.37434300
C        3.04331400      -2.03338400      -0.60575500
C        4.22399900      -2.73917600      -0.62956900
C        5.06990300      -2.52310400       0.45521000
C        6.26866900      -3.22688700       0.44429900
C        7.14652100      -3.06097100       1.47749400
N        8.38939000      -3.78906500       1.47137900
C        6.83094100      -2.20618600       2.50215700
C        5.62248200      -1.50445700       2.50078000
C        4.73167700      -1.66612100       1.46303200
C        3.51395600      -0.96631500       1.44583200
C        1.29492400       0.93817500       0.31238900
C        2.49168000       1.72515900       0.33988800
C        3.23027100       1.93327200      -0.79542700
C        4.40349600       2.70059100      -0.79264900
C        5.13080500       2.90817700      -1.93311600
C        6.29799700       3.67843400      -1.93160500
C        6.72759000       4.24208000      -0.74876500
N        7.90528100       5.03594100      -0.66688500
C        5.98831200       4.02579600       0.38863300
C        4.84119100       3.27401100       0.40171700
C        4.10314600       3.07234400       1.56119400
C        2.95958700       2.30946500       1.49204600
C        0.03167200       1.55405100       0.26885400
C       -1.12865700       0.81537100       0.24148500
C       -2.45169000       1.41470900       0.19552600
C       -2.91893000       2.24375500      -0.78681400
C       -4.19090000       2.78120500      -0.76151200
C       -5.04812600       2.49858600       0.26967300
C       -6.32918100       2.97905900       0.39281300
C       -7.17828200       2.68156000       1.44135300
N       -8.47631200       3.23060500       1.48155100
C       -6.70427100       1.83509800       2.44563000
C       -5.42846500       1.34207400       2.34648300
C       -4.60835000       1.65443200       1.29487500
C       -3.33447100       1.14118500       1.22909400
H       -7.59121000      -5.48834600      -1.69903800
H       -8.55027900      -4.04919300      -1.33240900
H       -6.23119300      -3.98096000       0.80010800
H       -4.47339800      -3.09432000       2.12601800
H       -2.38633200      -1.79465700       2.33147900
H       -4.16727600      -1.94225500      -3.21902400
H       -6.26411300      -3.25217200      -3.37254300
H       -2.46210500      -1.09792100      -1.87302300
H        0.25573300      -2.26724600       0.30654400
H        2.39059200      -2.21599500      -1.47675500
H        4.44238900      -3.39648000      -1.43630800
H        6.52608800      -3.90007900      -0.35845600
H        9.31214500      -3.32009500       1.38182900
H        8.37403400      -4.81612600       1.55847600
H        7.53219000      -2.07895800       3.31800800
H        5.41006600      -0.84791300       3.30380300
H        3.30873800      -0.31526300       2.26179700
H        2.94104000       1.51909500      -1.72955900
H        4.78247700       2.45602500      -2.84775300
H        6.88079200       3.85429300      -2.82008600
H        8.75026200       4.76307200      -1.20638000
H        7.93124300       5.87636600      -0.08327200
H        6.31466400       4.45943500       1.32264700
H        4.45700000       3.52878100       2.48245600
H        2.42557400       2.19323500       2.45346400
H       -0.02604200       2.62400700       0.25557000
H       -2.26367600       2.48209700      -1.60866700
H       -4.54499900       3.44709200      -1.55973300
H       -6.69042700       3.63229900      -0.39488200
H       -9.29328900       2.64592500       1.23926700
H       -8.59747100       4.22376800       1.76106800
H       -7.38620600       1.62016600       3.24866300
H       -5.06750800       0.67884500       3.14180100
H       -3.03600300       0.49118200       2.04800500
