84
Properties=species:S:1:pos:R:3 Conformer=T 985:=T DA1=180 DA2=30 DFT_energy=-54141.32881786828 pbc="F F F"
N       -6.77323900      -5.82869500       0.96078700
C       -5.62861700      -4.98798200       0.92342500
C       -5.66120400      -3.75603000       0.28845900
C       -4.54676200      -2.94041100       0.25651500
C       -4.55788900      -1.70712000      -0.37289400
C       -3.41162200      -0.91960100      -0.37761100
C       -3.38654900      -3.34935800       0.86131700
C       -3.29599100      -4.58591600       1.51883300
C       -4.44474600      -5.36033500       1.51656100
C       -2.27525600      -2.56273200       0.84511100
C       -2.25385200      -1.33668200       0.23203500
C       -1.03284900      -0.55993900       0.25713700
C        0.21388100      -1.18774900       0.29908300
C        1.37867100      -0.43975600       0.32701300
C        2.65733100      -1.16709900       0.37434300
C        2.72467000      -2.52923800       0.38263900
C        3.88190200      -3.27237500       0.41853700
C        5.06312200      -2.53555900       0.44699600
C        6.24154400      -3.27222800       0.48033800
C        7.43736700      -2.61276200       0.50788700
N        8.66114500      -3.37168000       0.54385500
C        7.45364100      -1.24167700       0.50149100
C        6.26166700      -0.51308400       0.46757300
C        5.05167300      -1.17015100       0.43987500
C        3.84494000      -0.45228800       0.40333400
C        1.29492400       0.93817500       0.31238900
C        2.49168000       1.72515900       0.33988800
C        2.50982700       2.96909700       0.91439300
C        3.66914200       3.75627700       0.95412300
C        3.67891400       4.99483000       1.53604100
C        4.83679500       5.77773100       1.58089700
C        5.99871500       5.28858600       1.02229400
N        7.21527100       6.02604700       1.02691100
C        5.97511400       4.04402400       0.44135200
C        4.84752200       3.26474600       0.39134700
C        4.84521900       2.00523600      -0.19465300
C        3.67444800       1.28152700      -0.20054700
C        0.03167200       1.55405100       0.26885400
C       -1.12865700       0.81537100       0.24148500
C       -2.45169000       1.41470900       0.19552600
C       -2.72058900       2.75561500       0.17851700
C       -4.00804000       3.25390500       0.13880500
C       -5.08459700       2.40624600       0.11540000
C       -6.40163500       2.79487900       0.07672700
C       -7.47351100       1.92341300       0.05339200
N       -8.79239300       2.42082500       0.02051900
C       -7.20219200       0.55379300       0.07027800
C       -5.89548000       0.13958500       0.10919400
C       -4.85225500       1.02683100       0.13184300
C       -3.55439000       0.57457300       0.17093000
H       -7.45876000      -5.80864000       1.76932700
H       -7.01598900      -6.51081900       0.20846500
H       -6.56909700      -3.41762700      -0.19514300
H       -5.48586000      -1.40688300      -0.84129700
H       -3.48293400       0.03309900      -0.88511100
H       -2.38363400      -4.91465800       1.99809400
H       -4.41957200      -6.32567600       2.01076500
H       -1.36790100      -2.92188500       1.34283000
H        0.25573300      -2.26724600       0.30654400
H        1.80117100      -3.13294300       0.35576200
H        3.83977400      -4.33480900       0.42409600
H        6.23838700      -4.35104400       0.48381300
H        9.34356200      -3.37037300      -0.23955800
H        8.87803400      -3.94206100       1.37469800
H        8.40569000      -0.72524900       0.52278500
H        6.30753700       0.54466100       0.45825900
H        3.90387000       0.60993000       0.40169400
H        1.64029800       3.38929700       1.35615000
H        2.76026800       5.36305400       1.96363300
H        4.86301100       6.75298500       2.03714900
H        7.19789400       7.05151100       0.86069300
H        8.11054400       5.55906600       1.19426000
H        6.87767300       3.64956700      -0.00218100
H        5.77277800       1.63650500      -0.62586200
H        3.74949300       0.28958600      -0.68368900
H       -0.02604200       2.62400700       0.25557000
H       -1.89095300       3.44334200       0.19702400
H       -4.20148800       4.33483900       0.12840700
H       -6.60250600       3.86119200       0.05905200
H       -9.33064200       2.40238000      -0.86149700
H       -9.21266400       2.79909200       0.89199300
H       -8.05481200      -0.10099800       0.05074300
H       -5.69533600      -0.93858600       0.12276700
H       -3.42232300      -0.50459500       0.18343300
