84
Properties=species:S:1:pos:R:3 Conformer=T 636:=T DA1=80 DA2=140 DFT_energy=-54166.8305377197 pbc="F F F"
N       -8.18029300      -3.62202300       1.12008300
C       -6.93593400      -2.93789500       1.07659400
C       -5.87956800      -3.41363700       0.31520600
C       -4.67199200      -2.74410800       0.27363400
C       -3.60432800      -3.20262700      -0.47945200
C       -2.40796800      -2.49360600      -0.49172700
C       -4.50895600      -1.58927800       0.99398400
C       -5.54358300      -1.06130400       1.78163400
C       -6.72990700      -1.77684200       1.78477200
C       -3.32902700      -0.91022800       0.96800600
C       -2.25385200      -1.33668200       0.23203500
C       -1.03284900      -0.55993900       0.25713700
C        0.21388100      -1.18774900       0.29908300
C        1.37867100      -0.43975600       0.32701300
C        2.65733100      -1.16709900       0.37434300
C        3.35281200      -1.35010600       1.53315200
C        4.54651500      -2.02377100       1.65137500
C        5.05458800      -2.54931200       0.46619400
C        6.25900000      -3.23573300       0.56958400
C        6.81352600      -3.77859500      -0.55444800
N        8.06210900      -4.48962200      -0.45264600
C        6.17435400      -3.63776500      -1.75935700
C        4.96380600      -2.94548100      -1.84943800
C        4.39797800      -2.39488400      -0.72104500
C        3.18062200      -1.69810200      -0.79459400
C        1.29492400       0.93817500       0.31238900
C        2.49168000       1.72515900       0.33988800
C        3.55505800       1.37213800       1.12879400
C        4.73624900       2.12597100       1.17079300
C        5.79541400       1.76158800       1.95700700
C        6.97595000       2.51029300       1.99454600
C        7.07392700       3.64663000       1.21963000
N        8.24054400       4.46068500       1.20557200
C        6.00347300       4.00111600       0.43512200
C        4.84034100       3.27580900       0.38725300
C        3.77089300       3.64675400      -0.41800900
C        2.63903000       2.86357300      -0.41517500
C        0.03167200       1.55405100       0.26885400
C       -1.12865700       0.81537100       0.24148500
C       -2.45169000       1.41470900       0.19552600
C       -3.29295500       1.57519800       1.26189400
C       -4.54219800       2.15164000       1.14146000
C       -4.99389300       2.59186100      -0.07518600
C       -6.21542800       3.17662300      -0.30545700
C       -6.65217400       3.61424400      -1.54103700
N       -7.92866900       4.19729900      -1.67725300
C       -5.79538100       3.45213000      -2.63162500
C       -4.57012000       2.87070900      -2.42847800
C       -4.16346300       2.44585900      -1.19147800
C       -2.92738300       1.86691700      -1.02578500
H       -8.97993200      -3.37541100       0.46905400
H       -8.39005900      -4.40170500       1.78212800
H       -5.99066600      -4.32481800      -0.25930500
H       -3.75891400      -4.11514000      -1.03989800
H       -1.61134500      -2.90203300      -1.09906200
H       -5.42161600      -0.15054900       2.35243000
H       -7.55626100      -1.40696400       2.38233800
H       -3.23804600       0.01107900       1.55360400
H        0.25573300      -2.26724600       0.30654400
H        2.96624300      -0.94622500       2.48471800
H        5.02109200      -2.11658500       2.59833500
H        6.76798400      -3.35301300       1.51353700
H        8.14053100      -5.51059100      -0.62843900
H        8.91750000      -3.97487100      -0.19571800
H        6.61956800      -4.07146900      -2.64662000
H        4.49215700      -2.85834300      -2.79335000
H        2.72014900      -1.61103100      -1.74966700
H        3.52686300       0.50687500       1.74387500
H        5.69932800       0.87283700       2.55968800
H        7.81991000       2.23662200       2.60512900
H        8.75388200       4.64237200       2.09043400
H        8.58361300       4.86979300       0.33234500
H        6.06574000       4.89030600      -0.17512000
H        3.87002800       4.54391100      -1.02426900
H        1.83083600       3.22111000      -1.08000200
H       -0.02604200       2.62400700       0.25557000
H       -2.96131100       1.23641500       2.22980300
H       -5.20295900       2.26844300       2.01077100
H       -6.87251200       3.30272100       0.54895700
H       -8.02168900       5.22158600      -1.77819200
H       -8.76754000       3.58454200      -1.67909600
H       -6.16055100       3.80211900      -3.58044000
H       -3.90649400       2.74834200      -3.29295500
H       -2.31729400       1.77338100      -1.92090800
