84
Properties=species:S:1:pos:R:3 Conformer=T 961:=T DA1=170 DA2=150 DFT_energy=-54153.91084975327 pbc="F F F"
N       -8.25949700      -3.49000000       0.88744700
C       -7.00977900      -2.81483700       0.86073600
C       -5.89196000      -3.39299400       0.27921600
C       -4.67918700      -2.73213400       0.25309300
C       -3.55072000      -3.29199300      -0.32171700
C       -2.35144700      -2.58781600      -0.32581500
C       -4.57241400      -1.48353700       0.80872200
C       -5.67051500      -0.84977900       1.41049100
C       -6.85901100      -1.56170300       1.40748200
C       -3.38852200      -0.81107900       0.79398000
C       -2.25385200      -1.33668200       0.23203500
C       -1.03284900      -0.55993900       0.25713700
C        0.21388100      -1.18774900       0.29908300
C        1.37867100      -0.43975600       0.32701300
C        2.65733100      -1.16709900       0.37434300
C        2.72641300      -2.51316300       0.58258300
C        3.88312600      -3.25637000       0.63141000
C        5.06170800      -2.53803000       0.44724000
C        6.23930600      -3.27548400       0.49076300
C        7.43243000      -2.63391900       0.31613700
N        8.65546200      -3.39352000       0.36173500
C        7.44680500      -1.27973600       0.10127700
C        6.25566400      -0.55018700       0.05956500
C        5.04840600      -1.18923300       0.23489100
C        3.84234500      -0.47050700       0.19347700
C        1.29492400       0.93817500       0.31238900
C        2.49168000       1.72515900       0.33988800
C        3.62434000       1.27252700       0.96436800
C        4.80686900       2.02445000       1.00281400
C        5.93503600       1.56092400       1.62339300
C        7.11646800       2.30841200       1.65676300
C        7.14402000       3.54599200       1.04931500
N        8.30690000       4.36547100       1.04268700
C        6.00474300       3.99936300       0.43005200
C        4.83973200       3.27670000       0.38825000
C        3.69953100       3.74937300      -0.24915700
C        2.57028500       2.96242500      -0.25240600
C        0.03167200       1.55405100       0.26885400
C       -1.12865700       0.81537100       0.24148500
C       -2.45169000       1.41470900       0.19552600
C       -2.73369300       2.74145800       0.37112600
C       -4.02054900       3.24002600       0.31792800
C       -5.08315100       2.40698800       0.08346200
C       -6.39836400       2.79712400       0.01184100
C       -7.45603500       1.94056700      -0.22597700
N       -8.77471800       2.43719200      -0.27484300
C       -7.17129000       0.58548500      -0.40605700
C       -5.86610600       0.17006000      -0.33897900
C       -4.83713900       1.04231300      -0.10140900
C       -3.54036600       0.58929400      -0.04080800
H       -8.99266900      -3.34461000       0.13551600
H       -8.53760500      -4.16498100       1.63394900
H       -5.95817100      -4.37899200      -0.16359600
H       -3.66155000      -4.27741400      -0.75454400
H       -1.50588900      -3.07780100      -0.78973600
H       -5.59314200       0.13529400       1.85072200
H       -7.73364200      -1.11139900       1.86464800
H       -3.34327100       0.18648200       1.24434900
H        0.25573300      -2.26724600       0.30654400
H        1.80460300      -3.10280400       0.72619100
H        3.84263200      -4.30525800       0.80101600
H        6.23747300      -4.34135200       0.65746400
H        9.26777500      -3.51848700      -0.46825700
H        8.94372900      -3.83483800       1.24763400
H        8.39665900      -0.77755700      -0.03708000
H        6.29956700       0.49345500      -0.11335100
H        3.89991700       0.57855400       0.02632800
H        3.65194900       0.32702600       1.44713500
H        5.89379500       0.59328100       2.09699800
H        8.01395200       1.95786700       2.13802900
H        8.90316600       4.42230300       1.89165200
H        8.56637100       4.90030700       0.20949000
H        6.01159800       4.96818700      -0.04771700
H        3.74349500       4.72588300      -0.72535500
H        1.70352000       3.40417500      -0.77831600
H       -0.02604200       2.62400700       0.25557000
H       -1.91523100       3.41740900       0.55772200
H       -4.22485700       4.30901900       0.46442500
H       -6.60939400       3.85283300       0.14832900
H       -9.24858000       2.55871200      -1.18516900
H       -9.26016500       2.67282900       0.61284900
H       -8.01297100      -0.05777700      -0.59012200
H       -5.65537700      -0.89670800      -0.48143200
H       -3.39745000      -0.47827500      -0.18937700
