84
Properties=species:S:1:pos:R:3 Conformer=T 968:=T DA1=170 DA2=220 DFT_energy=-54130.81776660527 pbc="F F F"
N       -8.12097300      -3.64881300      -0.93632100
C       -6.88298800      -2.95936800      -0.83428800
C       -5.87121200      -3.41645400      -0.00402600
C       -4.66794800      -2.74454600       0.09047100
C       -3.64511500      -3.18354700       0.91410800
C       -2.45007500      -2.47482100       0.97513100
C       -4.46398600      -1.60694500      -0.64667300
C       -5.45233200      -1.09857500      -1.50360700
C       -6.63755800      -1.81406300      -1.55543100
C       -3.28611100      -0.92791200      -0.57224600
C       -2.25385200      -1.33668200       0.23203500
C       -1.03284900      -0.55993900       0.25713700
C        0.21388100      -1.18774900       0.29908300
C        1.37867100      -0.43975600       0.32701300
C        2.65733100      -1.16709900       0.37434300
C        2.72641300      -2.51316300       0.58258300
C        3.88312600      -3.25637000       0.63141000
C        5.06170800      -2.53803000       0.44724000
C        6.23930600      -3.27548400       0.49076300
C        7.43243000      -2.63391900       0.31613700
N        8.65546200      -3.39352000       0.36173500
C        7.44680500      -1.27973600       0.10127700
C        6.25566400      -0.55018700       0.05956500
C        5.04840600      -1.18923300       0.23489100
C        3.84234500      -0.47050700       0.19347700
C        1.29492400       0.93817500       0.31238900
C        2.49168000       1.72515900       0.33988800
C        3.59960500       1.35703000      -0.37757400
C        4.78077500       2.11199000      -0.36690100
C        5.87995300       1.73957000      -1.09205400
C        7.05631100       2.49573100      -1.08607500
C        7.10977100       3.64619400      -0.32783000
N        8.27063500       4.46645600      -0.26914800
C        5.99950200       4.00854500       0.39535000
C        4.83890800       3.27761800       0.39784100
C        3.72382100       3.66422600       1.13056400
C        2.59393800       2.87999700       1.07725600
C        0.03167200       1.55405100       0.26885400
C       -1.12865700       0.81537100       0.24148500
C       -2.45169000       1.41470900       0.19552600
C       -2.73369300       2.74145800       0.37112600
C       -4.02054900       3.24002600       0.31792800
C       -5.08315100       2.40698800       0.08346200
C       -6.39836400       2.79712400       0.01184100
C       -7.45603500       1.94056700      -0.22597700
N       -8.77471800       2.43719200      -0.27484300
C       -7.17129000       0.58548500      -0.40605700
C       -5.86610600       0.17006000      -0.33897900
C       -4.83713900       1.04231300      -0.10140900
C       -3.54036600       0.58929400      -0.04080800
H       -8.29741700      -4.37868300      -1.68481100
H       -8.92767300      -3.48954400      -0.29283300
H       -6.01560800      -4.31292900       0.58600700
H       -3.83042300      -4.08430300       1.48417400
H       -1.68938200      -2.86776500       1.63635600
H       -5.29790500      -0.20151100      -2.08806100
H       -7.43093400      -1.45579400      -2.20269600
H       -3.15880400      -0.02515600      -1.17956200
H        0.25573300      -2.26724600       0.30654400
H        1.80460300      -3.10280400       0.72619100
H        3.84263200      -4.30525800       0.80101600
H        6.23747300      -4.34135200       0.65746400
H        9.26777500      -3.51848700      -0.46825700
H        8.94372900      -3.83483800       1.24763400
H        8.39665900      -0.77755700      -0.03708000
H        6.29956700       0.49345500      -0.11335100
H        3.89991700       0.57855400       0.02632800
H        3.60758900       0.47912100      -0.97507800
H        5.82166100       0.83478900      -1.67541400
H        7.92935900       2.21896400      -1.65278800
H        9.21170000       4.02743200      -0.23508100
H        8.19147200       5.48688400      -0.26196900
H        6.02838600       4.90620100       0.99560700
H        3.78544700       4.57669000       1.71868100
H        1.74788000       3.25063300       1.68538500
H       -0.02604200       2.62400700       0.25557000
H       -1.91523100       3.41740900       0.55772200
H       -4.22485700       4.30901900       0.46442500
H       -6.60939400       3.85283300       0.14832900
H       -9.24858000       2.55871200      -1.18516900
H       -9.26016500       2.67282900       0.61284900
H       -8.01297100      -0.05777700      -0.59012200
H       -5.65537700      -0.89670800      -0.48143200
H       -3.39745000      -0.47827500      -0.18937700
