84
Properties=species:S:1:pos:R:3 Conformer=T 326:=T DA1=0 DA2=-80 DFT_energy=-54166.38712371883 pbc="F F F"
N       -7.29884900      -4.92475700      -1.44362700
C       -6.11957700      -4.14408100      -1.30865600
C       -5.74379700      -3.61416200      -0.08394200
C       -4.59502700      -2.85765900       0.04359800
C       -4.20238800      -2.31862700       1.25709100
C       -3.03645600      -1.56476400       1.33728000
C       -3.80865300      -2.62391300      -1.05462600
C       -4.13980000      -3.13546400      -2.31884800
C       -5.30317300      -3.88484400      -2.38489400
C       -2.67071100      -1.88294500      -0.95428100
C       -2.25385200      -1.33668200       0.23203500
C       -1.03284900      -0.55993900       0.25713700
C        0.21388100      -1.18774900       0.29908300
C        1.37867100      -0.43975600       0.32701300
C        2.65733100      -1.16709900       0.37434300
C        3.86170900      -0.52835500       0.41311900
C        5.09142300      -1.14299100       0.46557500
C        5.06217800      -2.53508700       0.47975700
C        6.29699200      -3.17114600       0.53574200
C        6.34155300      -4.53618100       0.55410700
N        7.61872600      -5.19988700       0.61071200
C        5.17219900      -5.25135800       0.51782100
C        3.93738300      -4.59951400       0.46191000
C        3.88353500      -3.22353200       0.44282600
C        2.65026400      -2.55344200       0.38905000
C        1.29492400       0.93817500       0.31238900
C        2.49168000       1.72515900       0.33988800
C        3.00679900       2.27345400      -0.80544800
C        4.17536800       3.04784200      -0.80241200
C        4.67842700       3.59671500      -1.95063100
C        5.84089600       4.37407200      -1.94681700
C        6.49794300       4.59149000      -0.75418300
N        7.68639700       5.36890600      -0.67004800
C        5.98237100       4.03475100       0.39089900
C        4.84275300       3.27161400       0.40233800
C        4.33287000       2.72262500       1.57212300
C        3.18098500       1.97242500       1.50244400
C        0.03167200       1.55405100       0.26885400
C       -1.12865700       0.81537100       0.24148500
C       -2.45169000       1.41470900       0.19552600
C       -3.63655600       0.73236300       0.16203600
C       -4.85993700       1.37148700       0.11452900
C       -4.93286200       2.73986500       0.09800500
C       -6.09329500       3.47353400       0.05061700
C       -6.14525800       4.85410200       0.03491300
N       -7.38826100       5.51723200      -0.02120600
C       -4.93724400       5.55358000       0.06941500
C       -3.76438200       4.84453300       0.11663200
C       -3.74315600       3.47508800       0.13095900
C       -2.54753000       2.79778700       0.17848900
H       -7.28364400      -5.98241300      -1.37143900
H       -8.24517700      -4.51956000      -1.61823500
H       -6.35369000      -3.78819500       0.79378300
H       -4.83919400      -2.51874500       2.10862300
H       -2.78275300      -1.17088600       2.31235500
H       -3.52373200      -2.95482900      -3.18947400
H       -5.59960400      -4.29769600      -3.34324500
H       -2.06602100      -1.72118500      -1.85327600
H        0.25573300      -2.26724600       0.30654400
H        3.90805600       0.57430200       0.40752800
H        5.98253300      -0.56348500       0.49144200
H        7.22190700      -2.61665600       0.56638700
H        7.92152400      -5.76161500       1.43059300
H        8.26541500      -5.12073600      -0.18816500
H        5.21502700      -6.33370400       0.53335300
H        3.05199600      -5.17971400       0.44014900
H        1.76812000      -3.14738900       0.36021800
H        2.53768100       2.13311600      -1.74780300
H        4.15416900       3.41242000      -2.87449400
H        6.24899100       4.81577000      -2.84031400
H        8.40833500       5.29025900      -1.41310000
H        7.83984500       6.00845500       0.11418600
H        6.48832200       4.19503700       1.33177700
H        4.86389400       2.90932400       2.50240600
H        2.83581500       1.56872300       2.47243800
H       -0.02604200       2.62400700       0.25557000
H       -3.60623100      -0.34492900       0.17340200
H       -5.79955500       0.80383600       0.08556800
H       -7.02723400       2.92129400       0.02887200
H       -7.77926200       5.95663100       0.82853000
H       -7.89860400       5.56053700      -0.92500700
H       -5.00748100       6.62642800       0.05689300
H       -2.82225200       5.40525100       0.14273900
H       -1.64949400       3.41031500       0.20176900
