84
Properties=species:S:1:pos:R:3 Conformer=T 116:=T DA1=-60 DA2=-20 DFT_energy=-54167.02245736243 pbc="F F F"
N       -6.67117300      -5.94571100      -0.38298800
C       -5.53519500      -5.09447500      -0.32549000
C       -5.64591700      -3.77331500       0.07976300
C       -4.53848000      -2.94955600       0.13669300
C       -4.62744000      -1.62721600       0.53767700
C       -3.48429200      -0.83634500       0.58094200
C       -3.30665800      -3.44028700      -0.21103600
C       -3.13523100      -4.76923200      -0.62831100
C       -4.28157700      -5.54627600      -0.66655000
C       -2.19979800      -2.64881600      -0.16154100
C       -2.25385200      -1.33668200       0.23203500
C       -1.03284900      -0.55993900       0.25713700
C        0.21388100      -1.18774900       0.29908300
C        1.37867100      -0.43975600       0.32701300
C        2.65733100      -1.16709900       0.37434300
C        3.61183300      -1.03294300      -0.59051500
C        4.82876000      -1.67448400      -0.60605000
C        5.06943100      -2.52286700       0.47159100
C        6.29639300      -3.17634700       0.47200000
C        6.59861400      -4.02268100       1.50060400
N        7.86818000      -4.70316900       1.50480700
C        5.69022000      -4.21102600       2.51032200
C        4.46034000      -3.54767200       2.49794900
C        4.14760800      -2.69281100       1.46450700
C        2.91661800      -2.01689100       1.43869000
C        1.29492400       0.93817500       0.31238900
C        2.49168000       1.72515900       0.33988800
C        2.49160300       3.03136000      -0.07436700
C        3.64991600       3.82077800      -0.05509900
C        3.63832900       5.12645800      -0.46473400
C        4.79247100       5.91574900      -0.44006000
C        5.97348100       5.36241600       0.00759700
N        7.18855000       6.10045400       0.06033500
C        5.97125300       4.05078900       0.41578300
C        4.84691400       3.26542300       0.39841400
C        4.86311600       1.94249900       0.82194200
C        3.69187600       1.22079300       0.77916400
C        0.03167200       1.55405100       0.26885400
C       -1.12865700       0.81537100       0.24148500
C       -2.45169000       1.41470900       0.19552600
C       -3.37691400       1.23212900      -0.79505400
C       -4.61684900       1.83999600      -0.77365000
C       -4.97225800       2.66539600       0.26097500
C       -6.17501100       3.31838600       0.37975800
C       -6.51415500       4.14690400       1.43211400
N       -7.77424600       4.77880900       1.46068800
C       -5.57179600       4.33499100       2.44519900
C       -4.36291600       3.69454800       2.35020200
C       -4.05380100       2.87856100       1.29443300
C       -2.83104100       2.25279200       1.23287400
H       -6.94649000      -6.57055800       0.42808800
H       -7.30339600      -6.01314800      -1.21121200
H       -6.61141700      -3.36895100       0.35717400
H       -5.61028800      -1.26459700       0.80821800
H       -3.61813400       0.18785600       0.90246400
H       -2.16610000      -5.16282000      -0.90405000
H       -4.19653300      -6.57943000      -0.98610400
H       -1.23198300      -3.07782300      -0.44313700
H        0.25573300      -2.26724600       0.30654400
H        3.44403500      -0.36237300      -1.45087200
H        5.51376800      -1.51081900      -1.40263500
H        7.01784800      -3.03288500      -0.31716900
H        8.60112700      -4.51571600       2.21690400
H        8.06772500      -5.40546400       0.77704400
H        5.93685900      -4.88318600       3.32329200
H        3.78229600      -3.71010100       3.29474800
H        2.24086300      -2.19392200       2.24105900
H        1.60761200       3.50136200      -0.42856700
H        2.70711800       5.54100100      -0.81592700
H        4.80068200       6.94536500      -0.75597200
H        7.42522500       6.76056500      -0.70631000
H        7.83431400       5.99126300       0.84688300
H        6.89004300       3.60389500       0.76655300
H        5.80368800       1.52657700       1.17493400
H        3.78217800       0.17645400       1.13159500
H       -0.02604200       2.62400700       0.25557000
H       -3.12131500       0.58796100      -1.62047800
H       -5.34403200       1.68159000      -1.58115200
H       -6.90279100       3.16234900      -0.40997200
H       -8.51760000       4.42305100       2.08428000
H       -7.94044000       5.60449000       0.85256800
H       -5.86254000       4.98387900       3.25173800
H       -3.63096600       3.85076400       3.15178700
H       -2.14958800       2.44863700       2.05717300
