84
Properties=species:S:1:pos:R:3 Conformer=T 141:=T DA1=-60 DA2=230 DFT_energy=-54164.16186461266 pbc="F F F"
N       -8.00952000      -3.81780900      -1.12826400
C       -6.77962500      -3.11607300      -1.01303600
C       -5.85399000      -3.44255900      -0.03397600
C       -4.65813700      -2.75940900       0.07315400
C       -3.72069900      -3.06893500       1.04407600
C       -2.52955700      -2.35430600       1.11208300
C       -4.37528600      -1.74141500      -0.80023100
C       -5.27460600      -1.36802100      -1.81087600
C       -6.45689900      -2.08795100      -1.86791600
C       -3.20277300      -1.05426000      -0.71628100
C       -2.25385200      -1.33668200       0.23203500
C       -1.03284900      -0.55993900       0.25713700
C        0.21388100      -1.18774900       0.29908300
C        1.37867100      -0.43975600       0.32701300
C        2.65733100      -1.16709900       0.37434300
C        3.61183300      -1.03294300      -0.59051500
C        4.82876000      -1.67448400      -0.60605000
C        5.06943100      -2.52286700       0.47159100
C        6.29639300      -3.17634700       0.47200000
C        6.59861400      -4.02268100       1.50060400
N        7.86818000      -4.70316900       1.50480700
C        5.69022000      -4.21102600       2.51032200
C        4.46034000      -3.54767200       2.49794900
C        4.14760800      -2.69281100       1.46450700
C        2.91661800      -2.01689100       1.43869000
C        1.29492400       0.93817500       0.31238900
C        2.49168000       1.72515900       0.33988800
C        3.52456500       1.47631300      -0.52555600
C        4.70408100       2.23389100      -0.51779500
C        5.72750800       1.98182300      -1.39060400
C        6.90178900       2.74122000      -1.38683400
C        7.03170500       3.77015900      -0.47811800
N        8.19583700       4.58517900      -0.41166200
C        5.99701300       4.01243500       0.39234000
C        4.83932500       3.27694100       0.39907700
C        3.80083700       3.54178400       1.28291500
C        2.66818900       2.76195400       1.22403600
C        0.03167200       1.55405100       0.26885400
C       -1.12865700       0.81537100       0.24148500
C       -2.45169000       1.41470900       0.19552600
C       -3.37691400       1.23212900      -0.79505400
C       -4.61684900       1.83999600      -0.77365000
C       -4.97225800       2.66539600       0.26097500
C       -6.17501100       3.31838600       0.37975800
C       -6.51415500       4.14690400       1.43211400
N       -7.77424600       4.77880900       1.46068800
C       -5.57179600       4.33499100       2.44519900
C       -4.36291600       3.69454800       2.35020200
C       -4.05380100       2.87856100       1.29443300
C       -2.83104100       2.25279200       1.23287400
H       -8.12282300      -4.65022000      -1.77505000
H       -8.87093600      -3.56902500      -0.59321400
H       -6.06147400      -4.24337700       0.66480800
H       -3.96710100      -3.87707300       1.72000100
H       -1.83755500      -2.64310000       1.89183200
H       -5.05764800      -0.56576400      -2.50331300
H       -7.18308100      -1.83153600      -2.63189600
H       -3.01063400      -0.24982900      -1.43460100
H        0.25573300      -2.26724600       0.30654400
H        3.44403500      -0.36237300      -1.45087200
H        5.51376800      -1.51081900      -1.40263500
H        7.01784800      -3.03288500      -0.31716900
H        8.60112700      -4.51571600       2.21690400
H        8.06772500      -5.40546400       0.77704400
H        5.93685900      -4.88318600       3.32329200
H        3.78229600      -3.71010100       3.29474800
H        2.24086300      -2.19392200       2.24105900
H        3.47217500       0.69437900      -1.24223700
H        5.61040100       1.17057000      -2.09095300
H        7.71562400       2.55850300      -2.06820200
H        9.13424300       4.15557400      -0.53141000
H        8.12143700       5.59292700      -0.24887100
H        6.08643700       4.81388900       1.11109300
H        3.92174600       4.35998500       1.98874600
H        1.88552300       3.03182200       1.95725500
H       -0.02604200       2.62400700       0.25557000
H       -3.12131500       0.58796100      -1.62047800
H       -5.34403200       1.68159000      -1.58115200
H       -6.90279100       3.16234900      -0.40997200
H       -8.51760000       4.42305100       2.08428000
H       -7.94044000       5.60449000       0.85256800
H       -5.86254000       4.98387900       3.25173800
H       -3.63096600       3.85076400       3.15178700
H       -2.14958800       2.44863700       2.05717300
