84
Properties=species:S:1:pos:R:3 Conformer=T 44:=T DA1=-80 DA2=-20 DFT_energy=-54167.03962624222 pbc="F F F"
N       -6.67117300      -5.94571100      -0.38298800
C       -5.53519500      -5.09447500      -0.32549000
C       -5.64591700      -3.77331500       0.07976300
C       -4.53848000      -2.94955600       0.13669300
C       -4.62744000      -1.62721600       0.53767700
C       -3.48429200      -0.83634500       0.58094200
C       -3.30665800      -3.44028700      -0.21103600
C       -3.13523100      -4.76923200      -0.62831100
C       -4.28157700      -5.54627600      -0.66655000
C       -2.19979800      -2.64881600      -0.16154100
C       -2.25385200      -1.33668200       0.23203500
C       -1.03284900      -0.55993900       0.25713700
C        0.21388100      -1.18774900       0.29908300
C        1.37867100      -0.43975600       0.32701300
C        2.65733100      -1.16709900       0.37434300
C        3.43101200      -1.36003700      -0.73210000
C        4.63684200      -2.02183100      -0.75909400
C        5.07054700      -2.52125200       0.46624800
C        6.28916500      -3.19008800       0.45611700
C        6.77510700      -3.70434700       1.62446700
N        8.03674900      -4.39940900       1.61882300
C        6.05531800      -3.55154300       2.78150500
C        4.83163600      -2.87671800       2.77793800
C        4.33438500      -2.35536500       1.60425900
C        3.10712900      -1.67248900       1.58449800
C        1.29492400       0.93817500       0.31238900
C        2.49168000       1.72515900       0.33988800
C        2.49160300       3.03136000      -0.07436700
C        3.64991600       3.82077800      -0.05509900
C        3.63832900       5.12645800      -0.46473400
C        4.79247100       5.91574900      -0.44006000
C        5.97348100       5.36241600       0.00759700
N        7.18855000       6.10045400       0.06033500
C        5.97125300       4.05078900       0.41578300
C        4.84691400       3.26542300       0.39841400
C        4.86311600       1.94249900       0.82194200
C        3.69187600       1.22079300       0.77916400
C        0.03167200       1.55405100       0.26885400
C       -1.12865700       0.81537100       0.24148500
C       -2.45169000       1.41470900       0.19552600
C       -3.22324600       1.56144600      -0.92420300
C       -4.47370900       2.14687300      -0.89234200
C       -4.99721800       2.61218300       0.28557000
C       -6.22596000       3.20963700       0.42826700
C       -6.73594600       3.67218100       1.62613300
N       -8.00816100       4.27844300       1.66932000
C       -5.95075100       3.52344700       2.77116800
C       -4.71968000       2.93041500       2.65559500
C       -4.23935600       2.48119500       1.45412700
C       -2.99969700       1.89149900       1.37651700
H       -6.94649000      -6.57055800       0.42808800
H       -7.30339600      -6.01314800      -1.21121200
H       -6.61141700      -3.36895100       0.35717400
H       -5.61028800      -1.26459700       0.80821800
H       -3.61813400       0.18785600       0.90246400
H       -2.16610000      -5.16282000      -0.90405000
H       -4.19653300      -6.57943000      -0.98610400
H       -1.23198300      -3.07782300      -0.44313700
H        0.25573300      -2.26724600       0.30654400
H        3.10884200      -0.96865900      -1.71243800
H        5.17330100      -2.12682600      -1.67110300
H        6.86309700      -3.31351300      -0.44899900
H        8.87762100      -4.03663300       2.10949300
H        8.11956800      -5.29260100       1.11086200
H        6.44709700      -3.96138200       3.70459200
H        4.30205700      -2.77073700       3.68861300
H        2.58097200      -1.57887900       2.50437700
H        1.60761200       3.50136200      -0.42856700
H        2.70711800       5.54100100      -0.81592700
H        4.80068200       6.94536500      -0.75597200
H        7.42522500       6.76056500      -0.70631000
H        7.83431400       5.99126300       0.84688300
H        6.89004300       3.60389500       0.76655300
H        5.80368800       1.52657700       1.17493400
H        3.78217800       0.17645400       1.13159500
H       -0.02604200       2.62400700       0.25557000
H       -2.83372900       1.20417100      -1.86347900
H       -5.07558500       2.25707900      -1.80423500
H       -6.83098100       3.31655200      -0.46627300
H       -8.81882000       3.75461300       2.03869500
H       -8.11554300       5.25460600       1.33056300
H       -6.37257800       3.89151600       3.68914400
H       -4.11218900       2.81991900       3.56192800
H       -2.44667400       1.81215600       2.30929300
