84
Properties=species:S:1:pos:R:3 Conformer=T 234:=T DA1=-30 DA2=80 DFT_energy=-54166.79254407568 pbc="F F F"
N       -7.38973300      -4.88371300       1.70696700
C       -6.20069500      -4.11118200       1.61898400
C       -5.75659800      -3.60984600       0.40515100
C       -4.60122300      -2.85698800       0.32422000
C       -4.13989700      -2.34785900      -0.87796600
C       -2.97194400      -1.59354400      -0.91007800
C       -3.87755000      -2.59684500       1.45900600
C       -4.27960500      -3.07836100       2.71443300
C       -5.44466100      -3.82781800       2.73259300
C       -2.73646200      -1.85585000       1.40552100
C       -2.25385200      -1.33668200       0.23203500
C       -1.03284900      -0.55993900       0.25713700
C        0.21388100      -1.18774900       0.29908300
C        1.37867100      -0.43975600       0.32701300
C        2.65733100      -1.16709900       0.37434300
C        3.80539300      -0.66491000      -0.16397200
C        5.03333100      -1.28514100      -0.14948900
C        5.06629300      -2.52799500       0.47757700
C        6.30093500      -3.16633000       0.50322600
C        6.40520600      -4.38848900       1.10414200
N        7.68211700      -5.05451900       1.13209000
C        5.29480900      -4.96087200       1.66945500
C        4.05952800      -4.30831900       1.63697900
C        3.94564200      -3.07594900       1.03292200
C        2.71163500      -2.40618900       0.99395500
C        1.29492400       0.93817500       0.31238900
C        2.49168000       1.72515900       0.33988800
C        2.93854800       2.29660000       1.50244200
C        4.10715000       3.06926200       1.55347200
C        4.54890500       3.63045000       2.72080200
C        5.71777600       4.39638200       2.77296800
C        6.44302700       4.59215900       1.61666300
N        7.64029500       5.36006500       1.58935400
C        5.98845500       4.02337000       0.45183400
C        4.84494800       3.26884200       0.38611600
C        4.40498800       2.69585600      -0.80042800
C        3.25007100       1.94726300      -0.78409300
C        0.03167200       1.55405100       0.26885400
C       -1.12865700       0.81537100       0.24148500
C       -2.45169000       1.41470900       0.19552600
C       -3.55750200       0.86440400      -0.39181500
C       -4.78548500       1.49637500      -0.40013900
C       -4.94387100       2.72267600       0.19075000
C       -6.11662400       3.43645400       0.23862700
C       -6.25550000       4.67249100       0.84015800
N       -7.50250000       5.33041100       0.83113800
C       -5.12840900       5.23676200       1.44100700
C       -3.94510500       4.54451800       1.40676000
C       -3.83671800       3.32005700       0.80262300
C       -2.63333400       2.65510000       0.78782300
H       -8.32931700      -4.44531100       1.92847200
H       -7.42150500      -5.91707200       1.56078900
H       -6.31547700      -3.80641000      -0.50131100
H       -4.72963600      -2.56599000      -1.75847900
H       -2.66319300      -1.22338800      -1.87854800
H       -3.71326900      -2.87675100       3.61375200
H       -5.79161500      -4.22288500       3.68143400
H       -2.18742700      -1.66566900       2.33417700
H        0.25573300      -2.26724600       0.30654400
H        3.80312100       0.32026900      -0.66141500
H        5.87763400      -0.81871600      -0.59689500
H        7.18016900      -2.72281000       0.06265300
H        8.20389800      -5.22725800       2.01375700
H        8.10389200      -5.37629500       0.24821100
H        5.38497800      -5.93006300       2.14494200
H        3.22181800      -4.77401500       2.08685200
H        1.87585700      -2.88753400       1.44291400
H        2.41400100       2.17563800       2.41787500
H        3.96674400       3.47071400       3.61405900
H        6.08130700       4.84282400       3.68319300
H        7.70691700       6.23240200       2.14979600
H        8.44064000       5.06301800       1.02472800
H        6.54555100       4.17068300      -0.46188100
H        4.99348100       2.85910400      -1.70003700
H        2.96291100       1.52349200      -1.76438000
H       -0.02604200       2.62400700       0.25557000
H       -3.45894200      -0.09934900      -0.86412200
H       -5.66017000       1.03748300      -0.88002700
H       -6.98824000       2.98776600      -0.22682900
H       -8.08554200       5.34614000       1.68426200
H       -7.82111500       5.79951200      -0.03926900
H       -5.26543800       6.19847000       1.90191300
H       -3.06692900       4.99846500       1.88155800
H       -1.80109500       3.15790900       1.27440500
