84
Properties=species:S:1:pos:R:3 Conformer=T 1022:=T DA1=190 DA2=40 DFT_energy=-54161.0216245683 pbc="F F F"
N       -6.86562100      -5.69072100       1.18495600
C       -5.71422400      -4.86015500       1.13204600
C       -5.67545200      -3.73476100       0.32338200
C       -4.55485500      -2.92834000       0.27666100
C       -4.49522000      -1.80072400      -0.52472100
C       -3.34574700      -1.01798300      -0.53754400
C       -3.45999700      -3.23969300       1.04050700
C       -3.44319300      -4.36611100       1.87746800
C       -4.59436400      -5.13692900       1.88125700
C       -2.34428500      -2.45965500       1.01323400
C       -2.25385200      -1.33668200       0.23203500
C       -1.03284900      -0.55993900       0.25713700
C        0.21388100      -1.18774900       0.29908300
C        1.37867100      -0.43975600       0.32701300
C        2.65733100      -1.16709900       0.37434300
C        2.74020200      -2.51491400       0.18315800
C        3.89905400      -3.25602800       0.20637900
C        5.06452200      -2.53308200       0.44725000
C        6.24462500      -3.26743600       0.47075600
C        7.42565600      -2.62082700       0.70033900
N        8.65099100      -3.37761300       0.72699100
C        7.42581600      -1.26453300       0.90195300
C        6.23235900      -0.53806300       0.87549600
C        5.03719300      -1.18226500       0.64490500
C        3.82938600      -0.46599000       0.61297500
C        1.29492400       0.93817500       0.31238900
C        2.49168000       1.72515900       0.33988800
C        2.56921400       2.87284200       1.08458800
C        3.72987100       3.65786200       1.12772400
C        3.79975700       4.79905700       1.87974000
C        4.95946200       5.57908500       1.92743800
C        6.06084600       5.18804500       1.19572900
N        7.27494200       5.92955100       1.19161700
C        5.97726500       4.04062100       0.44511700
C        4.84723100       3.26523500       0.38999200
C        4.78431300       2.10397400      -0.36979800
C        3.61572000       1.37673100      -0.36930300
C        0.03167200       1.55405100       0.26885400
C       -1.12865700       0.81537100       0.24148500
C       -2.45169000       1.41470900       0.19552600
C       -2.72140100       2.73903300      -0.01434200
C       -4.00847300       3.23918600      -0.04068700
C       -5.08373800       2.41057200       0.14707300
C       -6.40022100       2.80294500       0.14121700
C       -7.47080700       1.95078300       0.33248000
N       -8.78873500       2.45150000       0.31524800
C       -7.19868600       0.59806000       0.54660100
C       -5.89247700       0.18058800       0.55748000
C       -4.85052100       1.04854300       0.36508200
C       -3.55311700       0.59362800       0.38278300
H       -7.62311000      -5.55497400       1.91424500
H       -7.04411100      -6.47672000       0.52121300
H       -6.53106200      -3.47444100      -0.28721000
H       -5.37261100      -1.57600600      -1.11663600
H       -3.36014300      -0.15028100      -1.18342600
H       -2.58264000      -4.61749400       2.48278800
H       -4.62479400      -6.01926300       2.51158600
H       -1.49072900      -2.73843300       1.64071600
H        0.25573300      -2.26724600       0.30654400
H        1.82974700      -3.10676000      -0.01388100
H        3.86947000      -4.30706400       0.04819900
H        6.25424400      -4.33438700       0.31141600
H        9.39774400      -3.25858800       0.01451500
H        8.80303200      -4.06719000       1.47801900
H        8.36624800      -0.75814600       1.08281000
H        6.26604800       0.50890200       1.02959400
H        3.87537600       0.58422300       0.77643100
H        1.74745200       3.21561300       1.66339400
H        2.92756000       5.09195000       2.44172000
H        5.03274000       6.47815300       2.51589500
H        7.24548000       6.96804300       1.17849700
H        8.18041100       5.45250000       1.20342500
H        6.83182800       3.72391800      -0.13484100
H        5.66503400       1.81119500      -0.93626200
H        3.64060500       0.46609400      -0.99630100
H       -0.02604200       2.62400700       0.25557000
H       -1.89273500       3.41172300      -0.16403400
H       -4.20239700       4.30701500      -0.20826300
H       -6.60207000       3.85527200      -0.03068400
H       -9.38913500       2.30004500      -0.51214900
H       -9.14520000       2.96730600       1.14353300
H       -8.05035700      -0.04201400       0.69170200
H       -5.69164700      -0.88408700       0.72726900
H       -3.42026300      -0.47143800       0.55652100
