84
Properties=species:S:1:pos:R:3 Conformer=T 347:=T DA1=0 DA2=130 DFT_energy=-54162.52463442916 pbc="F F F"
N       -8.08021500      -3.78588200       1.32246300
C       -6.84272300      -3.09048200       1.26426400
C       -5.86394800      -3.43920200       0.34647100
C       -4.66295600      -2.75888700       0.29143900
C       -3.67209000      -3.09167300      -0.61670400
C       -2.47937600      -2.37669300      -0.63605100
C       -4.42887800      -1.72036000       1.15502800
C       -5.38335500      -1.32360300       2.10432200
C       -6.56695700      -2.04359300       2.11278200
C       -3.25391900      -1.03318400       1.11931900
C       -2.25385200      -1.33668200       0.23203500
C       -1.03284900      -0.55993900       0.25713700
C        0.21388100      -1.18774900       0.29908300
C        1.37867100      -0.43975600       0.32701300
C        2.65733100      -1.16709900       0.37434300
C        3.86170900      -0.52835500       0.41311900
C        5.09142300      -1.14299100       0.46557500
C        5.06217800      -2.53508700       0.47975700
C        6.29699200      -3.17114600       0.53574200
C        6.34155300      -4.53618100       0.55410700
N        7.61872600      -5.19988700       0.61071200
C        5.17219900      -5.25135800       0.51782100
C        3.93738300      -4.59951400       0.46191000
C        3.88353500      -3.22353200       0.44282600
C        2.65026400      -2.55344200       0.38905000
C        1.29492400       0.93817500       0.31238900
C        2.49168000       1.72515900       0.33988800
C        3.47147500       1.49431800       1.26966300
C        4.65101700       2.25055200       1.31475800
C        5.62675700       2.00806400       2.24312500
C        6.80601900       2.75857400       2.28450700
C        6.98898800       3.77067900       1.36607200
N        8.15997600       4.57830200       1.34584100
C        6.00174600       4.00358200       0.43973900
C        4.84103200       3.27478500       0.38645800
C        3.85693600       3.52096200      -0.56260300
C        2.72192900       2.74238200      -0.55457400
C        0.03167200       1.55405100       0.26885400
C       -1.12865700       0.81537100       0.24148500
C       -2.45169000       1.41470900       0.19552600
C       -3.63655600       0.73236300       0.16203600
C       -4.85993700       1.37148700       0.11452900
C       -4.93286200       2.73986500       0.09800500
C       -6.09329500       3.47353400       0.05061700
C       -6.14525800       4.85410200       0.03491300
N       -7.38826100       5.51723200      -0.02120600
C       -4.93724400       5.55358000       0.06941500
C       -3.76438200       4.84453300       0.11663200
C       -3.74315600       3.47508800       0.13095900
C       -2.54753000       2.79778700       0.17848900
H       -8.93621300      -3.45456700       0.79182500
H       -8.23023300      -4.65609500       1.87962800
H       -6.03175000      -4.25754500      -0.34259600
H       -3.88188000      -3.91382300      -1.28807100
H       -1.74455400      -2.68394000      -1.36811200
H       -5.20508100      -0.50503000       2.78865700
H       -7.33243900      -1.77334300       2.83233400
H       -3.10507200      -0.20664500       1.82265900
H        0.25573300      -2.26724600       0.30654400
H        3.90805600       0.57430200       0.40752800
H        5.98253300      -0.56348500       0.49144200
H        7.22190700      -2.61665600       0.56638700
H        7.92152400      -5.76161500       1.43059300
H        8.26541500      -5.12073600      -0.18816500
H        5.21502700      -6.33370400       0.53335300
H        3.05199600      -5.17971400       0.44014900
H        1.76812000      -3.14738900       0.36021800
H        3.37596900       0.72745500       1.99808400
H        5.46461000       1.21591400       2.95624600
H        7.58518800       2.57954700       3.00618500
H        8.58863600       4.88843100       2.24003100
H        8.58877300       4.85750800       0.45940500
H        6.13095300       4.79494500      -0.28412500
H        4.02254600       4.32092100      -1.28017400
H        1.98438600       2.99663800      -1.33840500
H       -0.02604200       2.62400700       0.25557000
H       -3.60623100      -0.34492900       0.17340200
H       -5.79955500       0.80383600       0.08556800
H       -7.02723400       2.92129400       0.02887200
H       -7.77926200       5.95663100       0.82853000
H       -7.89860400       5.56053700      -0.92500700
H       -5.00748100       6.62642800       0.05689300
H       -2.82225200       5.40525100       0.14273900
H       -1.64949400       3.41031500       0.20176900
