84
Properties=species:S:1:pos:R:3 Conformer=T 988:=T DA1=180 DA2=60 DFT_energy=-54162.91507443686 pbc="F F F"
N       -7.10421200      -5.32684300       1.53078200
C       -5.93556500      -4.52262900       1.45423800
C       -5.71234700      -3.67850900       0.37739700
C       -4.57589800      -2.89627200       0.30794100
C       -4.33343600      -2.04747500      -0.75884900
C       -3.17559200      -1.27748400      -0.78430600
C       -3.64995500      -2.95003400       1.31732600
C       -3.82376700      -3.78576500       2.43130200
C       -4.98123400      -4.54699200       2.44452300
C       -2.52273600      -2.18752900       1.27284200
C       -2.25385200      -1.33668200       0.23203500
C       -1.03284900      -0.55993900       0.25713700
C        0.21388100      -1.18774900       0.29908300
C        1.37867100      -0.43975600       0.32701300
C        2.65733100      -1.16709900       0.37434300
C        2.72467000      -2.52923800       0.38263900
C        3.88190200      -3.27237500       0.41853700
C        5.06312200      -2.53555900       0.44699600
C        6.24154400      -3.27222800       0.48033800
C        7.43736700      -2.61276200       0.50788700
N        8.66114500      -3.37168000       0.54385500
C        7.45364100      -1.24167700       0.50149100
C        6.26166700      -0.51308400       0.46757300
C        5.05167300      -1.17015100       0.43987500
C        3.84494000      -0.45228800       0.40333400
C        1.29492400       0.93817500       0.31238900
C        2.49168000       1.72515900       0.33988800
C        2.73266800       2.61487100       1.35384300
C        3.89689500       3.39428000       1.40222100
C        4.13161900       4.27542900       2.42262100
C        5.29566700       5.04872300       2.47403500
C        6.23054100       4.92045700       1.46859300
N        7.43739200       5.67348300       1.45012300
C        5.98250600       4.03247100       0.45028800
C        4.84628400       3.26675700       0.38767800
C        4.61650900       2.36884100      -0.64707600
C        3.45395000       1.63206700      -0.63642700
C        0.03167200       1.55405100       0.26885400
C       -1.12865700       0.81537100       0.24148500
C       -2.45169000       1.41470900       0.19552600
C       -2.72058900       2.75561500       0.17851700
C       -4.00804000       3.25390500       0.13880500
C       -5.08459700       2.40624600       0.11540000
C       -6.40163500       2.79487900       0.07672700
C       -7.47351100       1.92341300       0.05339200
N       -8.79239300       2.42082500       0.02051900
C       -7.20219200       0.55379300       0.07027800
C       -5.89548000       0.13958500       0.10919400
C       -4.85225500       1.02683100       0.13184300
C       -3.55439000       0.57457300       0.17093000
H       -7.97723700      -5.00228100       2.03730500
H       -7.18447600      -6.27479300       1.10048200
H       -6.43289200      -3.62417200      -0.42915200
H       -5.07997800      -2.02227700      -1.54161100
H       -3.04291700      -0.63406800      -1.64377600
H       -3.09710500      -3.83296800       3.23123500
H       -5.15560000      -5.20986700       3.28532500
H       -1.80790700      -2.25469300       2.10019800
H        0.25573300      -2.26724600       0.30654400
H        1.80117100      -3.13294300       0.35576200
H        3.83977400      -4.33480900       0.42409600
H        6.23838700      -4.35104400       0.48381300
H        9.34356200      -3.37037300      -0.23955800
H        8.87803400      -3.94206100       1.37469800
H        8.40569000      -0.72524900       0.52278500
H        6.30753700       0.54466100       0.45825900
H        3.90387000       0.60993000       0.40169400
H        2.04242600       2.75006500       2.14951000
H        3.38763000       4.36591500       3.19762300
H        5.49772100       5.74468500       3.27077000
H        7.42791200       6.67097800       1.74067500
H        8.31852100       5.24415800       1.15536500
H        6.70528500       3.92369900      -0.34513000
H        5.36802200       2.28003400      -1.42785200
H        3.34074700       0.93937100      -1.49104000
H       -0.02604200       2.62400700       0.25557000
H       -1.89095300       3.44334200       0.19702400
H       -4.20148800       4.33483900       0.12840700
H       -6.60250600       3.86119200       0.05905200
H       -9.33064200       2.40238000      -0.86149700
H       -9.21266400       2.79909200       0.89199300
H       -8.05481200      -0.10099800       0.05074300
H       -5.69533600      -0.93858600       0.12276700
H       -3.42232300      -0.50459500       0.18343300
