84
Properties=species:S:1:pos:R:3 Conformer=T 638:=T DA1=80 DA2=160 DFT_energy=-54165.110573537044 pbc="F F F"
N       -8.31542100      -3.39382300       0.63162300
C       -7.06201600      -2.72504800       0.62324800
C       -5.90074700      -3.37790000       0.23959400
C       -4.68432300      -2.72332900       0.23043900
C       -3.51289600      -3.35705600      -0.14829000
C       -2.31153100      -2.65646000      -0.14335500
C       -4.61732500      -1.40635200       0.60487000
C       -5.76029400      -0.69545500       1.00217200
C       -6.95034600      -1.40471500       0.99237700
C       -3.43059800      -0.73875200       0.60252900
C       -2.25385200      -1.33668200       0.23203500
C       -1.03284900      -0.55993900       0.25713700
C        0.21388100      -1.18774900       0.29908300
C        1.37867100      -0.43975600       0.32701300
C        2.65733100      -1.16709900       0.37434300
C        3.35281200      -1.35010600       1.53315200
C        4.54651500      -2.02377100       1.65137500
C        5.05458800      -2.54931200       0.46619400
C        6.25900000      -3.23573300       0.56958400
C        6.81352600      -3.77859500      -0.55444800
N        8.06210900      -4.48962200      -0.45264600
C        6.17435400      -3.63776500      -1.75935700
C        4.96380600      -2.94548100      -1.84943800
C        4.39797800      -2.39488400      -0.72104500
C        3.18062200      -1.69810200      -0.79459400
C        1.29492400       0.93817500       0.31238900
C        2.49168000       1.72515900       0.33988800
C        3.67721600       1.19851200       0.78138100
C        4.86073000       1.94907500       0.81592300
C        6.04138100       1.41216800       1.25242000
C        7.22330200       2.15906700       1.28142300
C        7.19713700       3.47182300       0.86030200
N        8.35702600       4.29555200       0.86213500
C        6.00551500       3.99837600       0.42468400
C        4.83922400       3.27743100       0.38942000
C        3.64501800       3.82570200      -0.06117600
C        2.51778200       3.03593500      -0.07121200
C        0.03167200       1.55405100       0.26885400
C       -1.12865700       0.81537100       0.24148500
C       -2.45169000       1.41470900       0.19552600
C       -3.29295500       1.57519800       1.26189400
C       -4.54219800       2.15164000       1.14146000
C       -4.99389300       2.59186100      -0.07518600
C       -6.21542800       3.17662300      -0.30545700
C       -6.65217400       3.61424400      -1.54103700
N       -7.92866900       4.19729900      -1.67725300
C       -5.79538100       3.45213000      -2.63162500
C       -4.57012000       2.87070900      -2.42847800
C       -4.16346300       2.44585900      -1.19147800
C       -2.92738300       1.86691700      -1.02578500
H       -8.97403700      -3.36309900      -0.19865400
H       -8.66838800      -3.95311600       1.43959200
H       -5.93525200      -4.41841900      -0.05837700
H       -3.59274600      -4.39571300      -0.44067900
H       -1.43139200      -3.20590200      -0.44953400
H       -5.71444500       0.34381500       1.29877700
H       -7.85919500      -0.89562700       1.29499500
H       -3.41754900       0.31423400       0.90429100
H        0.25573300      -2.26724600       0.30654400
H        2.96624300      -0.94622500       2.48471800
H        5.02109200      -2.11658500       2.59833500
H        6.76798400      -3.35301300       1.51353700
H        8.14053100      -5.51059100      -0.62843900
H        8.91750000      -3.97487100      -0.19571800
H        6.61956800      -4.07146900      -2.64662000
H        4.49215700      -2.85834300      -2.79335000
H        2.72014900      -1.61103100      -1.74966700
H        3.74742900       0.19337200       1.11688200
H        6.04210300       0.38573800       1.58223300
H        8.16141600       1.75175300       1.61907900
H        9.03195400       4.23491000       1.64972600
H        8.53756900       4.94812100       0.09457300
H        5.97017200       5.02622400       0.09421300
H        3.64679200       4.86130800      -0.39251500
H        1.60630700       3.54027300      -0.44251100
H       -0.02604200       2.62400700       0.25557000
H       -2.96131100       1.23641500       2.22980300
H       -5.20295900       2.26844300       2.01077100
H       -6.87251200       3.30272100       0.54895700
H       -8.02168900       5.22158600      -1.77819200
H       -8.76754000       3.58454200      -1.67909600
H       -6.16055100       3.80211900      -3.58044000
H       -3.90649400       2.74834200      -3.29295500
H       -2.31729400       1.77338100      -1.92090800
