84
Properties=species:S:1:pos:R:3 Conformer=T 1168:=T DA1=230 DA2=60 DFT_energy=-54168.32522370806 pbc="F F F"
N       -7.10421200      -5.32684300       1.53078200
C       -5.93556500      -4.52262900       1.45423800
C       -5.71234700      -3.67850900       0.37739700
C       -4.57589800      -2.89627200       0.30794100
C       -4.33343600      -2.04747500      -0.75884900
C       -3.17559200      -1.27748400      -0.78430600
C       -3.64995500      -2.95003400       1.31732600
C       -3.82376700      -3.78576500       2.43130200
C       -4.98123400      -4.54699200       2.44452300
C       -2.52273600      -2.18752900       1.27284200
C       -2.25385200      -1.33668200       0.23203500
C       -1.03284900      -0.55993900       0.25713700
C        0.21388100      -1.18774900       0.29908300
C        1.37867100      -0.43975600       0.32701300
C        2.65733100      -1.16709900       0.37434300
C        2.95816700      -2.17573000      -0.49294400
C        4.13306100      -2.89129900      -0.51056700
C        5.06916000      -2.52456200       0.45286900
C        6.26318000      -3.23642100       0.44610300
C        7.22670500      -2.92742000       1.36358900
N        8.46509900      -3.66312200       1.36145400
C        6.99986400      -1.92429600       2.27048900
C        5.79513100      -1.21620200       2.26629100
C        4.81830300      -1.52152800       1.34478500
C        3.60298000      -0.81760500       1.32608500
C        1.29492400       0.93817500       0.31238900
C        2.49168000       1.72515900       0.33988800
C        2.73266800       2.61487100       1.35384300
C        3.89689500       3.39428000       1.40222100
C        4.13161900       4.27542900       2.42262100
C        5.29566700       5.04872300       2.47403500
C        6.23054100       4.92045700       1.46859300
N        7.43739200       5.67348300       1.45012300
C        5.98250600       4.03247100       0.45028800
C        4.84628400       3.26675700       0.38767800
C        4.61650900       2.36884100      -0.64707600
C        3.45395000       1.63206700      -0.63642700
C        0.03167200       1.55405100       0.26885400
C       -1.12865700       0.81537100       0.24148500
C       -2.45169000       1.41470900       0.19552600
C       -2.85707400       2.38890100      -0.67466800
C       -4.13355600       2.91583900      -0.65654000
C       -5.05879000       2.47373600       0.25260200
C       -6.35066000       2.92893100       0.35743200
C       -7.26885800       2.46938600       1.28190200
N       -8.57252300       3.00542200       1.31465200
C       -6.85808700       1.47452400       2.17143700
C       -5.57302100       1.00313900       2.08787600
C       -4.68368100       1.47784800       1.16064300
C       -3.40268300       0.98121400       1.10661000
H       -7.97723700      -5.00228100       2.03730500
H       -7.18447600      -6.27479300       1.10048200
H       -6.43289200      -3.62417200      -0.42915200
H       -5.07997800      -2.02227700      -1.54161100
H       -3.04291700      -0.63406800      -1.64377600
H       -3.09710500      -3.83296800       3.23123500
H       -5.15560000      -5.20986700       3.28532500
H       -1.80790700      -2.25469300       2.10019800
H        0.25573300      -2.26724600       0.30654400
H        2.23293500      -2.47953100      -1.26739600
H        4.28168300      -3.66521000      -1.22439200
H        6.45104300      -4.02590800      -0.26473000
H        9.37625400      -3.22419600       1.12360800
H        8.45827600      -4.66508600       1.60373000
H        7.76873900      -1.68413800       2.99485500
H        5.65214200      -0.44367500       2.97606100
H        3.46828200      -0.04864600       2.04881600
H        2.04242600       2.75006500       2.14951000
H        3.38763000       4.36591500       3.19762300
H        5.49772100       5.74468500       3.27077000
H        7.42791200       6.67097800       1.74067500
H        8.31852100       5.24415800       1.15536500
H        6.70528500       3.92369900      -0.34513000
H        5.36802200       2.28003400      -1.42785200
H        3.34074700       0.93937100      -1.49104000
H       -0.02604200       2.62400700       0.25557000
H       -2.14769200       2.75419300      -1.39919900
H       -4.43737300       3.69976000      -1.36301800
H       -6.66221200       3.69869900      -0.34119300
H       -9.36358500       2.46664000       0.92485800
H       -8.72438300       3.94184200       1.73801500
H       -7.59300300       1.13533100       2.87920800
H       -5.26218700       0.22230100       2.79241000
H       -3.15600400       0.20971300       1.83196400
