84
Properties=species:S:1:pos:R:3 Conformer=T 481:=T DA1=40 DA2=30 DFT_energy=-54166.951038152816 pbc="F F F"
N       -6.77323900      -5.82869500       0.96078700
C       -5.62861700      -4.98798200       0.92342500
C       -5.66120400      -3.75603000       0.28845900
C       -4.54676200      -2.94041100       0.25651500
C       -4.55788900      -1.70712000      -0.37289400
C       -3.41162200      -0.91960100      -0.37761100
C       -3.38654900      -3.34935800       0.86131700
C       -3.29599100      -4.58591600       1.51883300
C       -4.44474600      -5.36033500       1.51656100
C       -2.27525600      -2.56273200       0.84511100
C       -2.25385200      -1.33668200       0.23203500
C       -1.03284900      -0.55993900       0.25713700
C        0.21388100      -1.18774900       0.29908300
C        1.37867100      -0.43975600       0.32701300
C        2.65733100      -1.16709900       0.37434300
C        3.70318000      -0.75917300       1.14882300
C        4.92045800      -1.39271500       1.24673400
C        5.05708000      -2.54429900       0.47590700
C        6.28066200      -3.19786700       0.56629100
C        6.48227700      -4.33541500      -0.16239300
N        7.74894300      -5.01546800      -0.07313600
C        5.47792500      -4.81045300      -0.96600800
C        4.25240600      -4.14393300      -1.04758000
C        4.04093400      -2.99622900      -0.31638600
C        2.81399900      -2.31601200      -0.38570000
C        1.29492400       0.93817500       0.31238900
C        2.49168000       1.72515900       0.33988800
C        2.50982700       2.96909700       0.91439300
C        3.66914200       3.75627700       0.95412300
C        3.67891400       4.99483000       1.53604100
C        4.83679500       5.77773100       1.58089700
C        5.99871500       5.28858600       1.02229400
N        7.21527100       6.02604700       1.02691100
C        5.97511400       4.04402400       0.44135200
C        4.84752200       3.26474600       0.39134700
C        4.84521900       2.00523600      -0.19465300
C        3.67444800       1.28152700      -0.20054700
C        0.03167200       1.55405100       0.26885400
C       -1.12865700       0.81537100       0.24148500
C       -2.45169000       1.41470900       0.19552600
C       -3.55215800       0.97352600       0.87740100
C       -4.78263600       1.59324400       0.78110400
C       -4.94952700       2.69420700      -0.01769400
C       -6.12592700       3.38337200      -0.18578100
C       -6.27329500       4.49236900      -0.99653700
N       -7.52657100       5.12854000      -1.10848600
C       -5.15148700       4.94544100      -1.69369500
C       -3.96486400       4.27467400      -1.54343400
C       -3.84812800       3.17716500      -0.73233600
C       -2.64171100       2.52969800      -0.60639100
H       -7.45876000      -5.80864000       1.76932700
H       -7.01598900      -6.51081900       0.20846500
H       -6.56909700      -3.41762700      -0.19514300
H       -5.48586000      -1.40688300      -0.84129700
H       -3.48293400       0.03309900      -0.88511100
H       -2.38363400      -4.91465800       1.99809400
H       -4.41957200      -6.32567600       2.01076500
H       -1.36790100      -2.92188500       1.34283000
H        0.25573300      -2.26724600       0.30654400
H        3.61506000       0.14795800       1.77122200
H        5.68220400      -1.00130400       1.87690200
H        7.07581700      -2.83243200       1.19720400
H        7.84732000      -5.96292200       0.34169300
H        8.59748400      -4.55281400      -0.43175000
H        5.64455000      -5.71356700      -1.54061300
H        3.49486100      -4.53868000      -1.67313300
H        2.06337600      -2.71835900      -1.02324600
H        1.64029800       3.38929700       1.35615000
H        2.76026800       5.36305400       1.96363300
H        4.86301100       6.75298500       2.03714900
H        7.19789400       7.05151100       0.86069300
H        8.11054400       5.55906600       1.19426000
H        6.87767300       3.64956700      -0.00218100
H        5.77277800       1.63650500      -0.62586200
H        3.74949300       0.28958600      -0.68368900
H       -0.02604200       2.62400700       0.25557000
H       -3.44721900       0.10873700       1.51201500
H       -5.65418600       1.22059300       1.33561300
H       -6.99110400       3.02672700       0.36372500
H       -7.70059400       6.01961200      -0.61481300
H       -8.26510000       4.69248000      -1.69466700
H       -5.29475500       5.81029400      -2.31626900
H       -3.09121100       4.63980400      -2.09670100
H       -1.81465200       2.93970300      -1.18091000
