84
Properties=species:S:1:pos:R:3 Conformer=T 360:=T DA1=0 DA2=260 DFT_energy=-54166.30946412941 pbc="F F F"
N       -7.59686100      -4.45582100      -1.45833200
C       -6.39651600      -3.70834000      -1.32122600
C       -5.79006700      -3.54136900      -0.08579500
C       -4.62158000      -2.81589700       0.04291200
C       -4.00043900      -2.63641300       1.26735300
C       -2.82387900      -1.89926000       1.34766500
C       -4.04643300      -2.24979400      -1.06517200
C       -4.61592000      -2.38632500      -2.34057200
C       -5.78726200      -3.12317400      -2.40676600
C       -2.89393300      -1.53171800      -0.96453300
C       -2.25385200      -1.33668200       0.23203500
C       -1.03284900      -0.55993900       0.25713700
C        0.21388100      -1.18774900       0.29908300
C        1.37867100      -0.43975600       0.32701300
C        2.65733100      -1.16709900       0.37434300
C        3.86170900      -0.52835500       0.41311900
C        5.09142300      -1.14299100       0.46557500
C        5.06217800      -2.53508700       0.47975700
C        6.29699200      -3.17114600       0.53574200
C        6.34155300      -4.53618100       0.55410700
N        7.61872600      -5.19988700       0.61071200
C        5.17219900      -5.25135800       0.51782100
C        3.93738300      -4.59951400       0.46191000
C        3.88353500      -3.22353200       0.44282600
C        2.65026400      -2.55344200       0.38905000
C        1.29492400       0.93817500       0.31238900
C        2.49168000       1.72515900       0.33988800
C        3.23027100       1.93327200      -0.79542700
C        4.40349600       2.70059100      -0.79264900
C        5.13080500       2.90817700      -1.93311600
C        6.29799700       3.67843400      -1.93160500
C        6.72759000       4.24208000      -0.74876500
N        7.90528100       5.03594100      -0.66688500
C        5.98831200       4.02579600       0.38863300
C        4.84119100       3.27401100       0.40171700
C        4.10314600       3.07234400       1.56119400
C        2.95958700       2.30946500       1.49204600
C        0.03167200       1.55405100       0.26885400
C       -1.12865700       0.81537100       0.24148500
C       -2.45169000       1.41470900       0.19552600
C       -3.63655600       0.73236300       0.16203600
C       -4.85993700       1.37148700       0.11452900
C       -4.93286200       2.73986500       0.09800500
C       -6.09329500       3.47353400       0.05061700
C       -6.14525800       4.85410200       0.03491300
N       -7.38826100       5.51723200      -0.02120600
C       -4.93724400       5.55358000       0.06941500
C       -3.76438200       4.84453300       0.11663200
C       -3.74315600       3.47508800       0.13095900
C       -2.54753000       2.79778700       0.17848900
H       -7.59121000      -5.48834600      -1.69903800
H       -8.55027900      -4.04919300      -1.33240900
H       -6.23119300      -3.98096000       0.80010800
H       -4.47339800      -3.09432000       2.12601800
H       -2.38633200      -1.79465700       2.33147900
H       -4.16727600      -1.94225500      -3.21902400
H       -6.26411300      -3.25217200      -3.37254300
H       -2.46210500      -1.09792100      -1.87302300
H        0.25573300      -2.26724600       0.30654400
H        3.90805600       0.57430200       0.40752800
H        5.98253300      -0.56348500       0.49144200
H        7.22190700      -2.61665600       0.56638700
H        7.92152400      -5.76161500       1.43059300
H        8.26541500      -5.12073600      -0.18816500
H        5.21502700      -6.33370400       0.53335300
H        3.05199600      -5.17971400       0.44014900
H        1.76812000      -3.14738900       0.36021800
H        2.94104000       1.51909500      -1.72955900
H        4.78247700       2.45602500      -2.84775300
H        6.88079200       3.85429300      -2.82008600
H        8.75026200       4.76307200      -1.20638000
H        7.93124300       5.87636600      -0.08327200
H        6.31466400       4.45943500       1.32264700
H        4.45700000       3.52878100       2.48245600
H        2.42557400       2.19323500       2.45346400
H       -0.02604200       2.62400700       0.25557000
H       -3.60623100      -0.34492900       0.17340200
H       -5.79955500       0.80383600       0.08556800
H       -7.02723400       2.92129400       0.02887200
H       -7.77926200       5.95663100       0.82853000
H       -7.89860400       5.56053700      -0.92500700
H       -5.00748100       6.62642800       0.05689300
H       -2.82225200       5.40525100       0.14273900
H       -1.64949400       3.41031500       0.20176900
