84
Properties=species:S:1:pos:R:3 Conformer=T 576:=T DA1=60 DA2=260 DFT_energy=-54168.245039286674 pbc="F F F"
N       -7.59686100      -4.45582100      -1.45833200
C       -6.39651600      -3.70834000      -1.32122600
C       -5.79006700      -3.54136900      -0.08579500
C       -4.62158000      -2.81589700       0.04291200
C       -4.00043900      -2.63641300       1.26735300
C       -2.82387900      -1.89926000       1.34766500
C       -4.04643300      -2.24979400      -1.06517200
C       -4.61592000      -2.38632500      -2.34057200
C       -5.78726200      -3.12317400      -2.40676600
C       -2.89393300      -1.53171800      -0.96453300
C       -2.25385200      -1.33668200       0.23203500
C       -1.03284900      -0.55993900       0.25713700
C        0.21388100      -1.18774900       0.29908300
C        1.37867100      -0.43975600       0.32701300
C        2.65733100      -1.16709900       0.37434300
C        3.54306500      -1.02420900       1.40151400
C        4.74932700      -1.67619000       1.51368100
C        5.05539700      -2.54754200       0.47154300
C        6.26986700      -3.21648600       0.57178100
C        6.63239900      -4.08797300      -0.41550100
N        7.89048200      -4.78250100      -0.31681200
C        5.79489900      -4.28684900      -1.48284500
C        4.57656800      -3.60814100      -1.57129700
C        4.20353100      -2.72756300      -0.58033000
C        2.98124800      -2.03941500      -0.65344800
C        1.29492400       0.93817500       0.31238900
C        2.49168000       1.72515900       0.33988800
C        3.23027100       1.93327200      -0.79542700
C        4.40349600       2.70059100      -0.79264900
C        5.13080500       2.90817700      -1.93311600
C        6.29799700       3.67843400      -1.93160500
C        6.72759000       4.24208000      -0.74876500
N        7.90528100       5.03594100      -0.66688500
C        5.98831200       4.02579600       0.38863300
C        4.84119100       3.27401100       0.40171700
C        4.10314600       3.07234400       1.56119400
C        2.95958700       2.30946500       1.49204600
C        0.03167200       1.55405100       0.26885400
C       -1.12865700       0.81537100       0.24148500
C       -2.45169000       1.41470900       0.19552600
C       -3.43821500       1.24422200       1.12736700
C       -4.67707700       1.84418800       1.01484600
C       -4.96933400       2.64752500      -0.05626800
C       -6.16574900       3.28935400      -0.26546900
C       -6.44048700       4.09595500      -1.35304800
N       -7.70434200       4.70745200      -1.48223800
C       -5.43516600       4.27227600      -2.30593700
C       -4.23139600       3.64204400      -2.12065700
C       -3.98706100       2.84748700      -1.03207300
C       -2.76744900       2.23117500      -0.87967500
H       -7.59121000      -5.48834600      -1.69903800
H       -8.55027900      -4.04919300      -1.33240900
H       -6.23119300      -3.98096000       0.80010800
H       -4.47339800      -3.09432000       2.12601800
H       -2.38633200      -1.79465700       2.33147900
H       -4.16727600      -1.94225500      -3.21902400
H       -6.26411300      -3.25217200      -3.37254300
H       -2.46210500      -1.09792100      -1.87302300
H        0.25573300      -2.26724600       0.30654400
H        3.31863600      -0.34264500       2.24004500
H        5.37991700      -1.50181300       2.35184600
H        6.93420700      -3.06762100       1.40865600
H        7.95294100      -5.81189300      -0.19079300
H        8.76941400      -4.24667100      -0.37194300
H        6.08852700      -4.97999500      -2.26187000
H        3.94946700      -3.78714000      -2.40539500
H        2.36325200      -2.22219600      -1.49988500
H        2.94104000       1.51909500      -1.72955900
H        4.78247700       2.45602500      -2.84775300
H        6.88079200       3.85429300      -2.82008600
H        8.75026200       4.76307200      -1.20638000
H        7.93124300       5.87636600      -0.08327200
H        6.31466400       4.45943500       1.32264700
H        4.45700000       3.52878100       2.48245600
H        2.42557400       2.19323500       2.45346400
H       -0.02604200       2.62400700       0.25557000
H       -3.23350900       0.61631600       1.97909300
H       -5.45604400       1.69158300       1.77370700
H       -6.93931300       3.15018700       0.48280600
H       -7.81661400       5.71308500      -1.27223400
H       -8.51379700       4.13586100      -1.79408200
H       -5.67608700       4.90526400      -3.14102700
H       -3.45008100       3.78782000      -2.87629600
H       -2.03581400       2.41453800      -1.66280300
