84
Properties=species:S:1:pos:R:3 Conformer=T 887:=T DA1=150 DA2=130 DFT_energy=-54167.29602906991 pbc="F F F"
N       -8.08021500      -3.78588200       1.32246300
C       -6.84272300      -3.09048200       1.26426400
C       -5.86394800      -3.43920200       0.34647100
C       -4.66295600      -2.75888700       0.29143900
C       -3.67209000      -3.09167300      -0.61670400
C       -2.47937600      -2.37669300      -0.63605100
C       -4.42887800      -1.72036000       1.15502800
C       -5.38335500      -1.32360300       2.10432200
C       -6.56695700      -2.04359300       2.11278200
C       -3.25391900      -1.03318400       1.11931900
C       -2.25385200      -1.33668200       0.23203500
C       -1.03284900      -0.55993900       0.25713700
C        0.21388100      -1.18774900       0.29908300
C        1.37867100      -0.43975600       0.32701300
C        2.65733100      -1.16709900       0.37434300
C        2.78098600      -2.39268300       0.95973000
C        3.93999500      -3.13022500       1.03360200
C        5.05900700      -2.54265100       0.44917700
C        6.23760100      -3.27704400       0.51285400
C        7.37371400      -2.76045500      -0.04214900
N        8.59775400      -3.51704700       0.02247800
C        7.33103100      -1.53216200      -0.65014300
C        6.13952200      -0.80427900      -0.70749600
C        4.98956600      -1.31773400      -0.15022100
C        3.78356900      -0.59954100      -0.20157100
C        1.29492400       0.93817500       0.31238900
C        2.49168000       1.72515900       0.33988800
C        3.47147500       1.49431800       1.26966300
C        4.65101700       2.25055200       1.31475800
C        5.62675700       2.00806400       2.24312500
C        6.80601900       2.75857400       2.28450700
C        6.98898800       3.77067900       1.36607200
N        8.15997600       4.57830200       1.34584100
C        6.00174600       4.00358200       0.43973900
C        4.84103200       3.27478500       0.38645800
C        3.85693600       3.52096200      -0.56260300
C        2.72192900       2.74238200      -0.55457400
C        0.03167200       1.55405100       0.26885400
C       -1.12865700       0.81537100       0.24148500
C       -2.45169000       1.41470900       0.19552600
C       -2.79964300       2.62357300       0.73236800
C       -4.08249200       3.12901700       0.65347300
C       -5.07358900       2.42343500       0.02265400
C       -6.37830700       2.83196000      -0.11128300
C       -7.36326800       2.10502400      -0.75185300
N       -8.67815400       2.60764600      -0.83182600
C       -7.01102800       0.87061100      -1.30131400
C       -5.71475600       0.43960000      -1.18093300
C       -4.75869400       1.18186300      -0.53982000
C       -3.46858600       0.71726000      -0.43840400
H       -8.93621300      -3.45456700       0.79182500
H       -8.23023300      -4.65609500       1.87962800
H       -6.03175000      -4.25754500      -0.34259600
H       -3.88188000      -3.91382300      -1.28807100
H       -1.74455400      -2.68394000      -1.36811200
H       -5.20508100      -0.50503000       2.78865700
H       -7.33243900      -1.77334300       2.83233400
H       -3.10507200      -0.20664500       1.82265900
H        0.25573300      -2.26724600       0.30654400
H        1.90610600      -2.87891000       1.42470600
H        3.94467200      -4.07957800       1.51243300
H        6.28012600      -4.24488900       0.98754700
H        9.06118800      -3.90473000      -0.82272100
H        9.03955600      -3.68650200       0.93832200
H        8.23573900      -1.12889100      -1.08880500
H        6.13771500       0.13896100      -1.18844400
H        3.79613200       0.35007500      -0.68100200
H        3.37596900       0.72745500       1.99808400
H        5.46461000       1.21591400       2.95624600
H        7.58518800       2.57954700       3.00618500
H        8.58863600       4.88843100       2.24003100
H        8.58877300       4.85750800       0.45940500
H        6.13095300       4.79494500      -0.28412500
H        4.02254600       4.32092100      -1.28017400
H        1.98438600       2.99663800      -1.33840500
H       -0.02604200       2.62400700       0.25557000
H       -2.03824300       3.19776200       1.23454800
H       -4.34087300       4.10119100       1.09400100
H       -6.64150000       3.79472000       0.31475300
H       -9.02436200       3.01287000      -1.71722900
H       -9.29015200       2.56011600       0.00625500
H       -7.79685500       0.32696000      -1.79427700
H       -5.45065900      -0.53180000      -1.61605300
H       -3.27072200      -0.25218900      -0.88920300
