84
Properties=species:S:1:pos:R:3 Conformer=T 379:=T DA1=10 DA2=90 DFT_energy=-54166.59431596615 pbc="F F F"
N       -7.53944000      -4.64892800       1.72391600
C       -6.33979000      -3.89305800       1.63528100
C       -5.77983200      -3.57341600       0.40799700
C       -4.61454700      -2.83610200       0.32604200
C       -4.03844100      -2.50697700      -0.88930400
C       -2.86515800      -1.76101400      -0.92222000
C       -3.99697100      -2.40957600       1.47312200
C       -4.51874300      -2.70335100       2.74239400
C       -5.68779600      -3.44654300       2.76113000
C       -2.84858100      -1.68002700       1.41859700
C       -2.25385200      -1.33668200       0.23203500
C       -1.03284900      -0.55993900       0.25713700
C        0.21388100      -1.18774900       0.29908300
C        1.37867100      -0.43975600       0.32701300
C        2.65733100      -1.16709900       0.37434300
C        3.84617700      -0.54267900       0.61260000
C        5.07427200      -1.15933700       0.67773300
C        5.06077800      -2.53756400       0.47950300
C        6.29391200      -3.17593800       0.54532500
C        6.35326400      -4.52811700       0.36165500
N        7.62888100      -5.19395300       0.42757600
C        5.20002400      -5.22850200       0.11735800
C        3.96669100      -4.57453500       0.05398700
C        3.89801400      -3.21141800       0.23779700
C        2.66581800      -2.53973900       0.17940900
C        1.29492400       0.93817500       0.31238900
C        2.49168000       1.72515900       0.33988800
C        3.04975800       2.12668800       1.52525300
C        4.22068800       2.89580100       1.57652500
C        4.77409500       3.28644100       2.76559100
C        5.94537700       4.04873500       2.81697900
C        6.55742700       4.41745900       1.63765900
N        7.74938200       5.19351500       1.60836300
C        5.99147300       4.01880500       0.45117100
C        4.84418400       3.27002000       0.38568100
C        4.29068200       2.87050900      -0.82419300
C        3.13990500       2.11558900      -0.80692900
C        0.03167200       1.55405100       0.26885400
C       -1.12865700       0.81537100       0.24148500
C       -2.45169000       1.41470900       0.19552600
C       -3.63574400       0.74894400       0.35489500
C       -4.85950500       1.38620700       0.29402100
C       -4.93372200       2.73554000       0.06633100
C       -6.09470900       3.46546800      -0.01387200
C       -6.14796200       4.82673200      -0.24417500
N       -7.39191900       5.48655800      -0.31593500
C       -4.94075100       5.50931300      -0.40690800
C       -3.76738400       4.80353000      -0.33165400
C       -3.74489000       3.45337600      -0.10228000
C       -2.54880300       2.77873200      -0.03336400
H       -8.49116600      -4.18642200       1.79012600
H       -7.56770200      -5.69266700       1.72822300
H       -6.25393300      -3.90293300      -0.50813800
H       -4.54589300      -2.85414100      -1.77961000
H       -2.46406000      -1.53567900      -1.90131200
H       -4.03650300      -2.36986100       3.65145200
H       -6.12535100      -3.69954600       3.72096800
H       -2.38640600      -1.35360900       2.35660200
H        0.25573300      -2.26724600       0.30654400
H        3.87948000       0.54811900       0.77717100
H        5.95283700      -0.59123000       0.86733900
H        7.20605100      -2.63331300       0.73878300
H        7.86734200      -5.87340100       1.17652100
H        8.34041700      -4.99560700      -0.29148600
H        5.25447000      -6.30080700      -0.02667200
H        3.09348600      -5.14395500      -0.13118600
H        1.79661400      -3.12168200      -0.01451800
H        2.61472700       1.86895600       2.45912800
H        4.27945300       2.99296600       3.67747800
H        6.39591300       4.36229400       3.74362500
H        7.87247100       5.97607600       2.28063700
H        8.49097300       4.98968100       0.93302200
H        6.45916300       4.30269500      -0.48028100
H        4.79103300       3.16844500      -1.74242700
H        2.75877100       1.83539800      -1.80654700
H       -0.02604200       2.62400700       0.25557000
H       -3.60445000      -0.31331000       0.53446000
H       -5.79864600       0.83165900       0.42223800
H       -7.02766900       2.92721400       0.11860800
H       -7.72076900       6.05896600       0.47918200
H       -7.96606800       5.39232200      -1.17654700
H       -5.01193600       6.56744400      -0.58406600
H       -2.82594200       5.35075200      -0.46176400
H       -1.65155400       3.37715800      -0.17132000
