84
Properties=species:S:1:pos:R:3 Conformer=T 421:=T DA1=20 DA2=150 DFT_energy=-54119.43085661366 pbc="F F F"
N       -8.25949700      -3.49000000       0.88744700
C       -7.00977900      -2.81483700       0.86073600
C       -5.89196000      -3.39299400       0.27921600
C       -4.67918700      -2.73213400       0.25309300
C       -3.55072000      -3.29199300      -0.32171700
C       -2.35144700      -2.58781600      -0.32581500
C       -4.57241400      -1.48353700       0.80872200
C       -5.67051500      -0.84977900       1.41049100
C       -6.85901100      -1.56170300       1.40748200
C       -3.38852200      -0.81107900       0.79398000
C       -2.25385200      -1.33668200       0.23203500
C       -1.03284900      -0.55993900       0.25713700
C        0.21388100      -1.18774900       0.29908300
C        1.37867100      -0.43975600       0.32701300
C        2.65733100      -1.16709900       0.37434300
C        3.81384400      -0.58696500       0.80555700
C        5.03926700      -1.20753700       0.88273000
C        5.05943500      -2.53997300       0.47876000
C        6.29008200      -3.18212000       0.55377400
C        6.38126700      -4.49107600       0.17434800
N        7.65456300      -5.16042500       0.24898900
C        5.26166300      -5.14542400      -0.27118400
C        4.03042000      -4.48823300      -0.34145500
C        3.92980100      -3.16847700       0.03895200
C        2.69905000      -2.49453200      -0.02364500
C        1.29492400       0.93817500       0.31238900
C        2.49168000       1.72515900       0.33988800
C        3.62434000       1.27252700       0.96436800
C        4.80686900       2.02445000       1.00281400
C        5.93503600       1.56092400       1.62339300
C        7.11646800       2.30841200       1.65676300
C        7.14402000       3.54599200       1.04931500
N        8.30690000       4.36547100       1.04268700
C        6.00474300       3.99936300       0.43005200
C        4.83973200       3.27670000       0.38825000
C        3.69953100       3.74937300      -0.24915700
C        2.57028500       2.96242500      -0.25240600
C        0.03167200       1.55405100       0.26885400
C       -1.12865700       0.81537100       0.24148500
C       -2.45169000       1.41470900       0.19552600
C       -3.62104100       0.79575900       0.54214500
C       -4.84614300       1.42907700       0.46842700
C       -4.93686000       2.72627700       0.03588500
C       -6.10076400       3.44733700      -0.07600600
C       -6.17076300       4.75567000      -0.51450300
N       -7.41679700       5.40977400      -0.60107500
C       -4.97856100       5.39043400      -0.86874400
C       -3.80267200       4.69229400      -0.76643200
C       -3.76342100       3.39512800      -0.32841900
C       -2.56533300       2.72648000      -0.23889400
H       -8.99266900      -3.34461000       0.13551600
H       -8.53760500      -4.16498100       1.63394900
H       -5.95817100      -4.37899200      -0.16359600
H       -3.66155000      -4.27741400      -0.75454400
H       -1.50588900      -3.07780100      -0.78973600
H       -5.59314200       0.13529400       1.85072200
H       -7.73364200      -1.11139900       1.86464800
H       -3.34327100       0.18648200       1.24434900
H        0.25573300      -2.26724600       0.30654400
H        3.81976400       0.46641000       1.13479600
H        5.89149000      -0.67542600       1.23079100
H        7.17573400      -2.67581300       0.90468800
H        7.83641000      -5.94546100       0.90479500
H        8.42244700      -4.85637400      -0.36792400
H        5.34118700      -6.18370500      -0.56984200
H        3.18317300      -5.02231600      -0.68488600
H        1.85668900      -3.03967500      -0.37723900
H        3.65194900       0.32702600       1.44713500
H        5.89379500       0.59328100       2.09699800
H        8.01395200       1.95786700       2.13802900
H        8.90316600       4.42230300       1.89165200
H        8.56637100       4.90030700       0.20949000
H        6.01159800       4.96818700      -0.04771700
H        3.74349500       4.72588300      -0.72535500
H        1.70352000       3.40417500      -0.77831600
H       -0.02604200       2.62400700       0.25557000
H       -3.57666400      -0.22510000       0.88490500
H       -5.77348600       0.91228200       0.74932900
H       -7.02163900       2.94723300       0.20607500
H       -7.68762100       6.10419400       0.11477400
H       -8.05144500       5.18726500      -1.39284000
H       -5.06255100       6.40804700      -1.20564300
H       -2.87316800       5.20153200      -1.04820200
H       -1.68048500       3.28553200      -0.53335100
