84
Properties=species:S:1:pos:R:3 Conformer=T 1213:=T DA1=240 DA2=150 DFT_energy=-54156.96057831435 pbc="F F F"
N       -8.25949700      -3.49000000       0.88744700
C       -7.00977900      -2.81483700       0.86073600
C       -5.89196000      -3.39299400       0.27921600
C       -4.67918700      -2.73213400       0.25309300
C       -3.55072000      -3.29199300      -0.32171700
C       -2.35144700      -2.58781600      -0.32581500
C       -4.57241400      -1.48353700       0.80872200
C       -5.67051500      -0.84977900       1.41049100
C       -6.85901100      -1.56170300       1.40748200
C       -3.38852200      -0.81107900       0.79398000
C       -2.25385200      -1.33668200       0.23203500
C       -1.03284900      -0.55993900       0.25713700
C        0.21388100      -1.18774900       0.29908300
C        1.37867100      -0.43975600       0.32701300
C        2.65733100      -1.16709900       0.37434300
C        3.04331400      -2.03338400      -0.60575500
C        4.22399900      -2.73917600      -0.62956900
C        5.06990300      -2.52310400       0.45521000
C        6.26866900      -3.22688700       0.44429900
C        7.14652100      -3.06097100       1.47749400
N        8.38939000      -3.78906500       1.47137900
C        6.83094100      -2.20618600       2.50215700
C        5.62248200      -1.50445700       2.50078000
C        4.73167700      -1.66612100       1.46303200
C        3.51395600      -0.96631500       1.44583200
C        1.29492400       0.93817500       0.31238900
C        2.49168000       1.72515900       0.33988800
C        3.62434000       1.27252700       0.96436800
C        4.80686900       2.02445000       1.00281400
C        5.93503600       1.56092400       1.62339300
C        7.11646800       2.30841200       1.65676300
C        7.14402000       3.54599200       1.04931500
N        8.30690000       4.36547100       1.04268700
C        6.00474300       3.99936300       0.43005200
C        4.83973200       3.27670000       0.38825000
C        3.69953100       3.74937300      -0.24915700
C        2.57028500       2.96242500      -0.25240600
C        0.03167200       1.55405100       0.26885400
C       -1.12865700       0.81537100       0.24148500
C       -2.45169000       1.41470900       0.19552600
C       -2.91893000       2.24375500      -0.78681400
C       -4.19090000       2.78120500      -0.76151200
C       -5.04812600       2.49858600       0.26967300
C       -6.32918100       2.97905900       0.39281300
C       -7.17828200       2.68156000       1.44135300
N       -8.47631200       3.23060500       1.48155100
C       -6.70427100       1.83509800       2.44563000
C       -5.42846500       1.34207400       2.34648300
C       -4.60835000       1.65443200       1.29487500
C       -3.33447100       1.14118500       1.22909400
H       -8.99266900      -3.34461000       0.13551600
H       -8.53760500      -4.16498100       1.63394900
H       -5.95817100      -4.37899200      -0.16359600
H       -3.66155000      -4.27741400      -0.75454400
H       -1.50588900      -3.07780100      -0.78973600
H       -5.59314200       0.13529400       1.85072200
H       -7.73364200      -1.11139900       1.86464800
H       -3.34327100       0.18648200       1.24434900
H        0.25573300      -2.26724600       0.30654400
H        2.39059200      -2.21599500      -1.47675500
H        4.44238900      -3.39648000      -1.43630800
H        6.52608800      -3.90007900      -0.35845600
H        9.31214500      -3.32009500       1.38182900
H        8.37403400      -4.81612600       1.55847600
H        7.53219000      -2.07895800       3.31800800
H        5.41006600      -0.84791300       3.30380300
H        3.30873800      -0.31526300       2.26179700
H        3.65194900       0.32702600       1.44713500
H        5.89379500       0.59328100       2.09699800
H        8.01395200       1.95786700       2.13802900
H        8.90316600       4.42230300       1.89165200
H        8.56637100       4.90030700       0.20949000
H        6.01159800       4.96818700      -0.04771700
H        3.74349500       4.72588300      -0.72535500
H        1.70352000       3.40417500      -0.77831600
H       -0.02604200       2.62400700       0.25557000
H       -2.26367600       2.48209700      -1.60866700
H       -4.54499900       3.44709200      -1.55973300
H       -6.69042700       3.63229900      -0.39488200
H       -9.29328900       2.64592500       1.23926700
H       -8.59747100       4.22376800       1.76106800
H       -7.38620600       1.62016600       3.24866300
H       -5.06750800       0.67884500       3.14180100
H       -3.03600300       0.49118200       2.04800500
