84
Properties=species:S:1:pos:R:3 Conformer=T 844:=T DA1=140 DA2=60 DFT_energy=-54161.04592731362 pbc="F F F"
N       -7.10421200      -5.32684300       1.53078200
C       -5.93556500      -4.52262900       1.45423800
C       -5.71234700      -3.67850900       0.37739700
C       -4.57589800      -2.89627200       0.30794100
C       -4.33343600      -2.04747500      -0.75884900
C       -3.17559200      -1.27748400      -0.78430600
C       -3.64995500      -2.95003400       1.31732600
C       -3.82376700      -3.78576500       2.43130200
C       -4.98123400      -4.54699200       2.44452300
C       -2.52273600      -2.18752900       1.27284200
C       -2.25385200      -1.33668200       0.23203500
C       -1.03284900      -0.55993900       0.25713700
C        0.21388100      -1.18774900       0.29908300
C        1.37867100      -0.43975600       0.32701300
C        2.65733100      -1.16709900       0.37434300
C        2.83215800      -2.29193800       1.12547400
C        3.99391100      -3.02391700       1.21070100
C        5.05780300      -2.54466100       0.45081000
C        6.23818600      -3.27530000       0.52384900
C        7.32171900      -2.86199100      -0.19779900
N        8.54748100      -3.61498000      -0.12435200
C        7.22561000      -1.73885900      -0.97851700
C        6.03291200      -1.01354600      -1.04324200
C        4.93578100      -1.42324800      -0.31864600
C        3.72917400      -0.70643500      -0.37475800
C        1.29492400       0.93817500       0.31238900
C        2.49168000       1.72515900       0.33988800
C        2.73266800       2.61487100       1.35384300
C        3.89689500       3.39428000       1.40222100
C        4.13161900       4.27542900       2.42262100
C        5.29566700       5.04872300       2.47403500
C        6.23054100       4.92045700       1.46859300
N        7.43739200       5.67348300       1.45012300
C        5.98250600       4.03247100       0.45028800
C        4.84628400       3.26675700       0.38767800
C        4.61650900       2.36884100      -0.64707600
C        3.45395000       1.63206700      -0.63642700
C        0.03167200       1.55405100       0.26885400
C       -1.12865700       0.81537100       0.24148500
C       -2.45169000       1.41470900       0.19552600
C       -2.85048700       2.52342700       0.89002600
C       -4.13004400       3.03526000       0.79970000
C       -5.06576200       2.43864000      -0.00436800
C       -6.36212900       2.86349200      -0.16577900
C       -7.29079500       2.24733100      -0.98238100
N       -8.60219800       2.75655400      -1.07652200
C       -6.88653800       1.11538300      -1.69303400
C       -5.59738000       0.67047400      -1.54913200
C       -4.69774700       1.30169000      -0.73165800
C       -3.41301000       0.82661800      -0.61218200
H       -7.97723700      -5.00228100       2.03730500
H       -7.18447600      -6.27479300       1.10048200
H       -6.43289200      -3.62417200      -0.42915200
H       -5.07997800      -2.02227700      -1.54161100
H       -3.04291700      -0.63406800      -1.64377600
H       -3.09710500      -3.83296800       3.23123500
H       -5.15560000      -5.20986700       3.28532500
H       -1.80790700      -2.25469300       2.10019800
H        0.25573300      -2.26724600       0.30654400
H        2.00109300      -2.69195600       1.73156700
H        4.04075500      -3.89030500       1.82531300
H        6.32239700      -4.16105000       1.13394900
H        8.93666400      -4.13112400      -0.93771600
H        9.06677700      -3.64989600       0.76547300
H        8.08874000      -1.41724100      -1.54870900
H        5.98875000      -0.15355400      -1.65926000
H        3.69945500       0.15991400      -0.99147300
H        2.04242600       2.75006500       2.14951000
H        3.38763000       4.36591500       3.19762300
H        5.49772100       5.74468500       3.27077000
H        7.42791200       6.67097800       1.74067500
H        8.31852100       5.24415800       1.15536500
H        6.70528500       3.92369900      -0.34513000
H        5.36802200       2.28003400      -1.42785200
H        3.34074700       0.93937100      -1.49104000
H       -0.02604200       2.62400700       0.25557000
H       -2.13323900       3.01072200       1.53011000
H       -4.42999500       3.92549800       1.36842900
H       -6.66574300       3.74673100       0.38684400
H       -8.88902000       3.29689700      -1.90944900
H       -9.27172900       2.57709100      -0.30276300
H       -7.62914600       0.65678600      -2.32098000
H       -5.29212100      -0.21985800      -2.11200000
H       -3.17271800      -0.05929200      -1.19495600
