84
Properties=species:S:1:pos:R:3 Conformer=T 679:=T DA1=90 DA2=210 DFT_energy=-54166.72134941813 pbc="F F F"
N       -8.21335500      -3.51083900      -0.71215200
C       -6.96859500      -2.83154000      -0.62566700
C       -5.88546100      -3.39518600       0.03089700
C       -4.67604200      -2.73247400       0.11061700
C       -3.58244700      -3.27715200       0.76228000
C       -2.38420100      -2.57320400       0.81519900
C       -4.53743400      -1.49728000      -0.46748300
C       -5.59953400      -0.87877100      -1.14497200
C       -6.78717600      -1.59065600      -1.19073400
C       -3.35513900      -0.82483600      -0.40412300
C       -2.25385200      -1.33668200       0.23203500
C       -1.03284900      -0.55993900       0.25713700
C        0.21388100      -1.18774900       0.29908300
C        1.37867100      -0.43975600       0.32701300
C        2.65733100      -1.16709900       0.37434300
C        3.25348600      -1.52375400       1.54797800
C        4.44080200      -2.20866800       1.66588300
C        5.05454700      -2.54956900       0.46334900
C        6.25395300      -3.24486200       0.56564900
C        6.90896600      -3.61216800      -0.57526700
N        8.15281100      -4.33158600      -0.47442800
C        6.37335600      -3.29029300      -1.79580000
C        5.16662900      -2.59121100      -1.88463900
C        4.49989100      -2.21690600      -0.73923700
C        3.28491600      -1.51586900      -0.81170500
C        1.29492400       0.93817500       0.31238900
C        2.49168000       1.72515900       0.33988800
C        3.65899200       1.26077500      -0.20737900
C        4.84150400       2.01357500      -0.19330000
C        6.00079600       1.54379600      -0.74835500
C        7.17897800       2.29708500      -0.73953400
C        7.17190200       3.54565300      -0.15439500
N        8.33030600       4.36995900      -0.10444200
C        6.00165400       4.00514100       0.39911500
C        4.83861700       3.27810800       0.39648600
C        3.66291500       3.76296400       0.95541900
C        2.53520900       2.97520100       0.90849900
C        0.03167200       1.55405100       0.26885400
C       -1.12865700       0.81537100       0.24148500
C       -2.45169000       1.41470900       0.19552600
C       -3.21396500       1.75097100       1.28018700
C       -4.46876100       2.31511600       1.15925600
C       -5.00704100       2.56273800      -0.07645800
C       -6.24211800       3.11744500      -0.30885000
C       -6.76685200       3.35934200      -1.56386100
N       -8.04996800       3.92783100      -1.69944300
C       -5.99083400       3.01747800      -2.67322300
C       -4.75399700       2.46174600      -2.46833800
C       -4.25917400       2.23301900      -1.21180800
C       -3.01424500       1.67369900      -1.04497100
H       -8.46176700      -4.12501700      -1.53989300
H       -8.95579500      -3.45544600       0.01991600
H       -5.97757300      -4.36974400       0.49394000
H       -3.71717400      -4.25342700       1.20883600
H       -1.56659100      -3.05114500       1.33804100
H       -5.49691100       0.09565300      -1.60336700
H       -7.63615600      -1.14938100      -1.70187500
H       -3.28163200       0.15829600      -0.88167700
H        0.25573300      -2.26724600       0.30654400
H        2.78221500      -1.26793100       2.51259700
H        4.83387400      -2.44394800       2.62541900
H        6.68185700      -3.50390500       1.52150500
H        8.25831300      -5.31434200      -0.79456700
H        8.97684500      -3.86236900      -0.07010200
H        6.89792500      -3.58536900      -2.69652600
H        4.77628300      -2.36200500      -2.84177500
H        2.90665700      -1.28505300      -1.77887900
H        3.71474300       0.30543700      -0.66783500
H        5.98895300       0.56368500      -1.19732700
H        8.09908700       1.94413200      -1.17404200
H        9.25928500       3.94396400       0.08272200
H        8.26133900       5.38031800      -0.25280400
H        5.98254200       4.98055100       0.86294700
H        3.67770300       4.75138000       1.40828100
H        1.63899200       3.42714000       1.37277400
H       -0.02604200       2.62400700       0.25557000
H       -2.81336700       1.56557700       2.26342600
H       -5.06519100       2.57510700       2.04391600
H       -6.83595600       3.38422100       0.55940800
H       -8.15023800       4.92430700      -1.95436800
H       -8.88666100       3.33190000      -1.54455100
H       -6.42349700       3.21732700      -3.63704700
H       -4.15436100       2.19699200      -3.34756300
H       -2.47022100       1.43317300      -1.95512800
