84
Properties=species:S:1:pos:R:3 Conformer=T 100:=T DA1=-70 DA2=180 DFT_energy=-54164.49629883912 pbc="F F F"
N       -8.35138900      -3.31952100       0.08197400
C       -7.09602000      -2.65509500       0.11268500
C       -5.90655900      -3.36600900       0.15434200
C       -4.68785800      -2.71619400       0.18159000
C       -3.48867900      -3.40716300       0.22424000
C       -2.28582000      -2.70954700       0.24869800
C       -4.64665100      -1.34608700       0.16655100
C       -5.81869500      -0.57528400       0.12437900
C       -7.00983800      -1.28235500       0.09993700
C       -3.45794200      -0.68246700       0.19097400
C       -2.25385200      -1.33668200       0.23203500
C       -1.03284900      -0.55993900       0.25713700
C        0.21388100      -1.18774900       0.29908300
C        1.37867100      -0.43975600       0.32701300
C        2.65733100      -1.16709900       0.37434300
C        3.52494300      -1.19136400      -0.67764800
C        4.73659800      -1.84261200      -0.69992100
C        5.07010200      -2.52185500       0.46900500
C        6.29314200      -3.18262400       0.46338000
C        6.68373500      -3.86797300       1.57844900
N        7.94957200      -4.55538500       1.57700300
C        5.86597900      -3.89107700       2.67886800
C        4.63899200      -3.22231300       2.67146800
C        4.23750100      -2.52913600       1.55124500
C        3.00823700      -1.84996300       1.52880100
C        1.29492400       0.93817500       0.31238900
C        2.49168000       1.72515900       0.33988800
C        3.72787300       1.13542100       0.38236000
C        4.91219000       1.88505500       0.40852300
C        6.14242700       1.28674600       0.44427600
C        7.32405600       2.03439600       0.46448300
C        7.24655100       3.41103200       0.44955000
N        8.40304100       4.23926900       0.47034300
C        6.00549000       3.99879800       0.41370900
C        4.83857200       3.27832900       0.39212900
C        3.59260400       3.89107800       0.34891500
C        2.46734000       3.09883100       0.32403600
C        0.03167200       1.55405100       0.26885400
C       -1.12865700       0.81537100       0.24148500
C       -2.45169000       1.41470900       0.19552600
C       -3.30195400       1.39143200      -0.87551700
C       -4.54699600       1.98850900      -0.84780000
C       -4.98436800       2.63980400       0.27584200
C       -6.19976100       3.26601400       0.40926300
C       -6.62220700       3.91757600       1.55203200
N       -7.88813200       4.53725900       1.58915200
C       -5.75651600       3.94272500       2.64734100
C       -4.53684500       3.32513800       2.53976800
C       -4.14424700       2.68649500       1.39345300
C       -2.91327700       2.07810000       1.32212700
H       -8.84586600      -3.54422000      -0.82856400
H       -8.86439700      -3.62876200       0.93719400
H       -5.92061700      -4.44873000       0.16761200
H       -3.54825100      -4.48745700       0.23385700
H       -1.38331500      -3.30510100       0.28153000
H       -5.79328300       0.50608800       0.11227800
H       -7.94124300      -0.72706400       0.07008500
H       -3.46524700       0.41282200       0.17371900
H        0.25573300      -2.26724600       0.30654400
H        3.28294500      -0.65604700      -1.61194200
H        5.35020500      -1.80909800      -1.56763900
H        6.94371700      -3.16840700      -0.39709400
H        8.74102200      -4.27170400       2.18738300
H        8.08627100      -5.36164600       0.94936300
H        6.18243800      -4.43605700       3.56000400
H        4.03234100      -3.25465600       3.53861600
H        2.40436000      -1.89592900       2.40344400
H        3.83894800       0.07936400       0.39668800
H        6.18375400       0.20953900       0.46015100
H        8.30024600       1.58009600       0.48979700
H        9.21312900       3.97976300       1.06693200
H        8.44911300       5.08935700      -0.09782900
H        5.93007900       5.07636500       0.40409300
H        3.55363300       4.97759600       0.33376700
H        1.51300000       3.65657200       0.28991000
H       -0.02604200       2.62400700       0.25557000
H       -2.98105300       0.88599000      -1.77170800
H       -5.21303700       1.96007900      -1.72045600
H       -6.86768800       3.23710900      -0.44556000
H       -8.66995700       4.08743300       2.09354400
H       -8.01985200       5.44882700       1.10865900
H       -6.11117900       4.45582300       3.52314800
H       -3.86560400       3.35234200       3.40659500
H       -2.29446300       2.14084800       2.21394200
