84
Properties=species:S:1:pos:R:3 Conformer=T 681:=T DA1=90 DA2=230 DFT_energy=-54167.87562724893 pbc="F F F"
N       -8.00952000      -3.81780900      -1.12826400
C       -6.77962500      -3.11607300      -1.01303600
C       -5.85399000      -3.44255900      -0.03397600
C       -4.65813700      -2.75940900       0.07315400
C       -3.72069900      -3.06893500       1.04407600
C       -2.52955700      -2.35430600       1.11208300
C       -4.37528600      -1.74141500      -0.80023100
C       -5.27460600      -1.36802100      -1.81087600
C       -6.45689900      -2.08795100      -1.86791600
C       -3.20277300      -1.05426000      -0.71628100
C       -2.25385200      -1.33668200       0.23203500
C       -1.03284900      -0.55993900       0.25713700
C        0.21388100      -1.18774900       0.29908300
C        1.37867100      -0.43975600       0.32701300
C        2.65733100      -1.16709900       0.37434300
C        3.25348600      -1.52375400       1.54797800
C        4.44080200      -2.20866800       1.66588300
C        5.05454700      -2.54956900       0.46334900
C        6.25395300      -3.24486200       0.56564900
C        6.90896600      -3.61216800      -0.57526700
N        8.15281100      -4.33158600      -0.47442800
C        6.37335600      -3.29029300      -1.79580000
C        5.16662900      -2.59121100      -1.88463900
C        4.49989100      -2.21690600      -0.73923700
C        3.28491600      -1.51586900      -0.81170500
C        1.29492400       0.93817500       0.31238900
C        2.49168000       1.72515900       0.33988800
C        3.52456500       1.47631300      -0.52555600
C        4.70408100       2.23389100      -0.51779500
C        5.72750800       1.98182300      -1.39060400
C        6.90178900       2.74122000      -1.38683400
C        7.03170500       3.77015900      -0.47811800
N        8.19583700       4.58517900      -0.41166200
C        5.99701300       4.01243500       0.39234000
C        4.83932500       3.27694100       0.39907700
C        3.80083700       3.54178400       1.28291500
C        2.66818900       2.76195400       1.22403600
C        0.03167200       1.55405100       0.26885400
C       -1.12865700       0.81537100       0.24148500
C       -2.45169000       1.41470900       0.19552600
C       -3.21396500       1.75097100       1.28018700
C       -4.46876100       2.31511600       1.15925600
C       -5.00704100       2.56273800      -0.07645800
C       -6.24211800       3.11744500      -0.30885000
C       -6.76685200       3.35934200      -1.56386100
N       -8.04996800       3.92783100      -1.69944300
C       -5.99083400       3.01747800      -2.67322300
C       -4.75399700       2.46174600      -2.46833800
C       -4.25917400       2.23301900      -1.21180800
C       -3.01424500       1.67369900      -1.04497100
H       -8.12282300      -4.65022000      -1.77505000
H       -8.87093600      -3.56902500      -0.59321400
H       -6.06147400      -4.24337700       0.66480800
H       -3.96710100      -3.87707300       1.72000100
H       -1.83755500      -2.64310000       1.89183200
H       -5.05764800      -0.56576400      -2.50331300
H       -7.18308100      -1.83153600      -2.63189600
H       -3.01063400      -0.24982900      -1.43460100
H        0.25573300      -2.26724600       0.30654400
H        2.78221500      -1.26793100       2.51259700
H        4.83387400      -2.44394800       2.62541900
H        6.68185700      -3.50390500       1.52150500
H        8.25831300      -5.31434200      -0.79456700
H        8.97684500      -3.86236900      -0.07010200
H        6.89792500      -3.58536900      -2.69652600
H        4.77628300      -2.36200500      -2.84177500
H        2.90665700      -1.28505300      -1.77887900
H        3.47217500       0.69437900      -1.24223700
H        5.61040100       1.17057000      -2.09095300
H        7.71562400       2.55850300      -2.06820200
H        9.13424300       4.15557400      -0.53141000
H        8.12143700       5.59292700      -0.24887100
H        6.08643700       4.81388900       1.11109300
H        3.92174600       4.35998500       1.98874600
H        1.88552300       3.03182200       1.95725500
H       -0.02604200       2.62400700       0.25557000
H       -2.81336700       1.56557700       2.26342600
H       -5.06519100       2.57510700       2.04391600
H       -6.83595600       3.38422100       0.55940800
H       -8.15023800       4.92430700      -1.95436800
H       -8.88666100       3.33190000      -1.54455100
H       -6.42349700       3.21732700      -3.63704700
H       -4.15436100       2.19699200      -3.34756300
H       -2.47022100       1.43317300      -1.95512800
