84
Properties=species:S:1:pos:R:3 Conformer=T 552:=T DA1=60 DA2=20 DFT_energy=-54167.02481072751 pbc="F F F"
N       -6.70273600      -5.93145600       0.71120200
C       -5.56336700      -5.08304900       0.69126900
C       -5.65036300      -3.77181600       0.24962300
C       -4.54063200      -2.94932300       0.23415200
C       -4.60573700      -1.63736800      -0.20382100
C       -3.46188700      -0.84634000      -0.19955700
C       -3.33058600      -3.43088600       0.66194000
C       -3.18378400      -4.74940100       1.11972900
C       -4.33071500      -5.52647200       1.11073400
C       -2.22263300      -2.63940600       0.65801000
C       -2.25385200      -1.33668200       0.23203500
C       -1.03284900      -0.55993900       0.25713700
C        0.21388100      -1.18774900       0.29908300
C        1.37867100      -0.43975600       0.32701300
C        2.65733100      -1.16709900       0.37434300
C        3.54306500      -1.02420900       1.40151400
C        4.74932700      -1.67619000       1.51368100
C        5.05539700      -2.54754200       0.47154300
C        6.26986700      -3.21648600       0.57178100
C        6.63239900      -4.08797300      -0.41550100
N        7.89048200      -4.78250100      -0.31681200
C        5.79489900      -4.28684900      -1.48284500
C        4.57656800      -3.60814100      -1.57129700
C        4.20353100      -2.72756300      -0.58033000
C        2.98124800      -2.03941500      -0.65344800
C        1.29492400       0.93817500       0.31238900
C        2.49168000       1.72515900       0.33988800
C        2.46790000       3.03939900       0.72715500
C        3.62622400       3.82821700       0.76309100
C        3.59334600       5.13817400       1.15763700
C        4.74971200       5.92349700       1.19910400
C        5.95440800       5.36264800       0.83098300
N        7.17254000       6.09738400       0.84501700
C        5.97336600       4.04683700       0.43694500
C        4.84767700       3.26446000       0.39278000
C        4.88816200       1.93320200      -0.00203600
C        3.71586900       1.21205400      -0.01494200
C        0.03167200       1.55405100       0.26885400
C       -1.12865700       0.81537100       0.24148500
C       -2.45169000       1.41470900       0.19552600
C       -3.43821500       1.24422200       1.12736700
C       -4.67707700       1.84418800       1.01484600
C       -4.96933400       2.64752500      -0.05626800
C       -6.16574900       3.28935400      -0.26546900
C       -6.44048700       4.09595500      -1.35304800
N       -7.70434200       4.70745200      -1.48223800
C       -5.43516600       4.27227600      -2.30593700
C       -4.23139600       3.64204400      -2.12065700
C       -3.98706100       2.84748700      -1.03207300
C       -2.76744900       2.23117500      -0.87967500
H       -7.30964900      -6.03672900       1.57413500
H       -7.01733800      -6.49849900      -0.10714800
H       -6.59814600      -3.37527700      -0.09260800
H       -5.57223900      -1.28100400      -0.53481300
H       -3.57661100       0.16962200      -0.55302100
H       -2.23192500      -5.13570400       1.45868600
H       -4.26321800      -6.55344900       1.45354100
H       -1.27414700      -3.05854300       1.01115000
H        0.25573300      -2.26724600       0.30654400
H        3.31863600      -0.34264500       2.24004500
H        5.37991700      -1.50181300       2.35184600
H        6.93420700      -3.06762100       1.40865600
H        7.95294100      -5.81189300      -0.19079300
H        8.76941400      -4.24667100      -0.37194300
H        6.08852700      -4.97999500      -2.26187000
H        3.94946700      -3.78714000      -2.40539500
H        2.36325200      -2.22219600      -1.49988500
H        1.56465900       3.51613000       1.01815800
H        2.64202600       5.56124600       1.43752300
H        4.74244600       6.95476000       1.50961800
H        7.18162500       7.08776800       0.53107000
H        8.04296800       5.66291700       1.16311100
H        6.90991800       3.59543700       0.14362300
H        5.84869300       1.50913600      -0.28455900
H        3.82631800       0.16074500      -0.33983600
H       -0.02604200       2.62400700       0.25557000
H       -3.23350900       0.61631600       1.97909300
H       -5.45604400       1.69158300       1.77370700
H       -6.93931300       3.15018700       0.48280600
H       -7.81661400       5.71308500      -1.27223400
H       -8.51379700       4.13586100      -1.79408200
H       -5.67608700       4.90526400      -3.14102700
H       -3.45008100       3.78782000      -2.87629600
H       -2.03581400       2.41453800      -1.66280300
