84
Properties=species:S:1:pos:R:3 Conformer=T 388:=T DA1=10 DA2=180 DFT_energy=-54048.99119961519 pbc="F F F"
N       -8.35138900      -3.31952100       0.08197400
C       -7.09602000      -2.65509500       0.11268500
C       -5.90655900      -3.36600900       0.15434200
C       -4.68785800      -2.71619400       0.18159000
C       -3.48867900      -3.40716300       0.22424000
C       -2.28582000      -2.70954700       0.24869800
C       -4.64665100      -1.34608700       0.16655100
C       -5.81869500      -0.57528400       0.12437900
C       -7.00983800      -1.28235500       0.09993700
C       -3.45794200      -0.68246700       0.19097400
C       -2.25385200      -1.33668200       0.23203500
C       -1.03284900      -0.55993900       0.25713700
C        0.21388100      -1.18774900       0.29908300
C        1.37867100      -0.43975600       0.32701300
C        2.65733100      -1.16709900       0.37434300
C        3.84617700      -0.54267900       0.61260000
C        5.07427200      -1.15933700       0.67773300
C        5.06077800      -2.53756400       0.47950300
C        6.29391200      -3.17593800       0.54532500
C        6.35326400      -4.52811700       0.36165500
N        7.62888100      -5.19395300       0.42757600
C        5.20002400      -5.22850200       0.11735800
C        3.96669100      -4.57453500       0.05398700
C        3.89801400      -3.21141800       0.23779700
C        2.66581800      -2.53973900       0.17940900
C        1.29492400       0.93817500       0.31238900
C        2.49168000       1.72515900       0.33988800
C        3.72787300       1.13542100       0.38236000
C        4.91219000       1.88505500       0.40852300
C        6.14242700       1.28674600       0.44427600
C        7.32405600       2.03439600       0.46448300
C        7.24655100       3.41103200       0.44955000
N        8.40304100       4.23926900       0.47034300
C        6.00549000       3.99879800       0.41370900
C        4.83857200       3.27832900       0.39212900
C        3.59260400       3.89107800       0.34891500
C        2.46734000       3.09883100       0.32403600
C        0.03167200       1.55405100       0.26885400
C       -1.12865700       0.81537100       0.24148500
C       -2.45169000       1.41470900       0.19552600
C       -3.63574400       0.74894400       0.35489500
C       -4.85950500       1.38620700       0.29402100
C       -4.93372200       2.73554000       0.06633100
C       -6.09470900       3.46546800      -0.01387200
C       -6.14796200       4.82673200      -0.24417500
N       -7.39191900       5.48655800      -0.31593500
C       -4.94075100       5.50931300      -0.40690800
C       -3.76738400       4.80353000      -0.33165400
C       -3.74489000       3.45337600      -0.10228000
C       -2.54880300       2.77873200      -0.03336400
H       -8.84586600      -3.54422000      -0.82856400
H       -8.86439700      -3.62876200       0.93719400
H       -5.92061700      -4.44873000       0.16761200
H       -3.54825100      -4.48745700       0.23385700
H       -1.38331500      -3.30510100       0.28153000
H       -5.79328300       0.50608800       0.11227800
H       -7.94124300      -0.72706400       0.07008500
H       -3.46524700       0.41282200       0.17371900
H        0.25573300      -2.26724600       0.30654400
H        3.87948000       0.54811900       0.77717100
H        5.95283700      -0.59123000       0.86733900
H        7.20605100      -2.63331300       0.73878300
H        7.86734200      -5.87340100       1.17652100
H        8.34041700      -4.99560700      -0.29148600
H        5.25447000      -6.30080700      -0.02667200
H        3.09348600      -5.14395500      -0.13118600
H        1.79661400      -3.12168200      -0.01451800
H        3.83894800       0.07936400       0.39668800
H        6.18375400       0.20953900       0.46015100
H        8.30024600       1.58009600       0.48979700
H        9.21312900       3.97976300       1.06693200
H        8.44911300       5.08935700      -0.09782900
H        5.93007900       5.07636500       0.40409300
H        3.55363300       4.97759600       0.33376700
H        1.51300000       3.65657200       0.28991000
H       -0.02604200       2.62400700       0.25557000
H       -3.60445000      -0.31331000       0.53446000
H       -5.79864600       0.83165900       0.42223800
H       -7.02766900       2.92721400       0.11860800
H       -7.72076900       6.05896600       0.47918200
H       -7.96606800       5.39232200      -1.17654700
H       -5.01193600       6.56744400      -0.58406600
H       -2.82594200       5.35075200      -0.46176400
H       -1.65155400       3.37715800      -0.17132000
