84
Properties=species:S:1:pos:R:3 Conformer=T 582:=T DA1=70 DA2=-40 DFT_energy=-54166.02565395214 pbc="F F F"
N       -6.80630100      -5.71751000      -0.87144800
C       -5.66127800      -4.88162800      -0.77883600
C       -5.66709700      -3.73757800       0.00415000
C       -4.55081100      -2.92877800       0.09349800
C       -4.53600800      -1.78164500       0.86883900
C       -3.38785400      -0.99919800       0.92931500
C       -3.41502700      -3.25736100      -0.60014900
C       -3.35194200      -4.40338200      -1.40777300
C       -4.50201500      -5.17415000      -1.45894500
C       -2.30136900      -2.47734000      -0.52701800
C       -2.25385200      -1.33668200       0.23203500
C       -1.03284900      -0.55993900       0.25713700
C        0.21388100      -1.18774900       0.29908300
C        1.37867100      -0.43975600       0.32701300
C        2.65733100      -1.16709900       0.37434300
C        3.45032600      -1.18188700       1.48383100
C        4.65040800      -1.84446200       1.60012100
C        5.05487500      -2.54862900       0.46895300
C        6.26435900      -3.22617800       0.57164900
C        6.72039400      -3.93881900      -0.50064700
N        7.97377100      -4.64146500      -0.39956900
C        5.97956200      -3.97334900      -1.65397200
C        4.76510700      -3.28792600      -1.74392200
C        4.29818000      -2.56684400      -0.66753400
C        3.07836400      -1.87440300      -0.74130200
C        1.29492400       0.93817500       0.31238900
C        2.49168000       1.72515900       0.33988800
C        2.61376100       2.85773400      -0.42178000
C        3.77439700       3.64388100      -0.40997000
C        3.88429600       4.77703800      -1.16932100
C        5.03982300       5.56452300      -1.15318300
C        6.09669000       5.18760800      -0.35173100
N        7.30503300       5.93532200      -0.28310300
C        5.97329400       4.04805000       0.40534500
C        4.84579800       3.26704400       0.40058100
C        4.73724100       2.12144600       1.17877500
C        3.57062800       1.39315500       1.12312800
C        0.03167200       1.55405100       0.26885400
C       -1.12865700       0.81537100       0.24148500
C       -2.45169000       1.41470900       0.19552600
C       -3.36847000       1.40455300       1.21043300
C       -4.61234700       1.99305800       1.09283100
C       -4.98119500       2.62041200      -0.06838700
C       -6.18971100       3.23451300      -0.29084900
C       -6.54227200       3.86229400      -1.47004600
N       -7.81228100       4.45983200      -1.60411100
C       -5.60826300       3.87467500      -2.50794300
C       -4.39413800       3.26816800      -2.31139800
C       -4.07183000       2.65277800      -1.13095400
C       -2.84427600       2.05464400      -0.97012300
H       -6.94059500      -6.55824600      -0.23961900
H       -7.58172500      -5.56455900      -1.55374700
H       -6.55600400      -3.46255200       0.55810200
H       -5.44412000      -1.54517000       1.40743600
H       -3.43818100      -0.11601300       1.55199200
H       -2.45892900      -4.66845600      -1.95770200
H       -4.49946700      -6.06809300      -2.07344800
H       -1.41148600      -2.77466900      -1.09245000
H        0.25573300      -2.26724600       0.30654400
H        3.14688000      -0.63464100       2.39293800
H        5.20496800      -1.79932700       2.50621100
H        6.85296100      -3.20609700       1.47553500
H        8.03769900      -5.67813800      -0.42512200
H        8.84764900      -4.10428200      -0.29736100
H        6.34700800      -4.54110100      -2.50025200
H        4.21373200      -3.33824900      -2.64640200
H        2.53716100      -1.92660800      -1.65571800
H        1.82817800       3.18785800      -1.05555900
H        3.04989300       5.05390100      -1.79338300
H        5.14218800       6.46049500      -1.74202100
H        7.70329800       6.35310300      -1.14701800
H        7.78827000       6.06959100       0.60911100
H        6.79447500       3.73981300       1.03588600
H        5.58045200       1.84397400       1.80668800
H        3.55764900       0.49561600       1.76908600
H       -0.02604200       2.62400700       0.25557000
H       -3.10279100       0.91675700       2.13405500
H       -5.33457700       1.97092200       1.91977900
H       -6.90731700       3.22391200       0.52316200
H       -7.90934400       5.48720200      -1.54848700
H       -8.64198000       3.85527100      -1.76312400
H       -5.90886500       4.37052200      -3.41340900
H       -3.66933200       3.28404400      -3.13425900
H       -2.17101000       2.10384900      -1.82246900
