84
Properties=species:S:1:pos:R:3 Conformer=T 267:=T DA1=-20 DA2=50 DFT_energy=-54157.18956816505 pbc="F F F"
N       -6.97707400      -5.52172500       1.37689900
C       -5.81758700      -4.70345000       1.31079400
C       -5.69267400      -3.70865600       0.35333200
C       -4.56466600      -2.91347600       0.29397900
C       -4.41963700      -1.91533700      -0.65468900
C       -3.26626600      -1.13849800      -0.67449600
C       -3.54869700      -3.10522300       1.19406500
C       -3.62091900      -4.09666500       2.18473600
C       -4.77502300      -4.86304000       2.19374300
C       -2.42762200      -2.33330800       1.15727000
C       -2.25385200      -1.33668200       0.23203500
C       -1.03284900      -0.55993900       0.25713700
C        0.21388100      -1.18774900       0.29908300
C        1.37867100      -0.43975600       0.32701300
C        2.65733100      -1.16709900       0.37434300
C        3.84100200      -0.59041400       0.01884300
C        5.07063700      -1.20686300       0.04558300
C        5.06497800      -2.53022900       0.47877900
C        6.30055800      -3.16626800       0.51436800
C        6.36792400      -4.46529000       0.93107700
N        7.64575500      -5.12909400       0.96840300
C        5.22032300      -5.11547900       1.30584100
C        3.98451800      -4.46435200       1.26561600
C        3.90771600      -3.15475200       0.84652200
C        2.67352600      -2.48563700       0.80260500
C        1.29492400       0.93817500       0.31238900
C        2.49168000       1.72515900       0.33988800
C        2.64425400       2.75355900       1.23257000
C        3.80656500       3.53596100       1.27861800
C        3.95220200       4.55680300       2.17829000
C        5.11398400       5.33359600       2.22819700
C        6.13891200       5.06408000       1.34601700
N        7.34974000       5.81082700       1.33413200
C        5.97975400       4.03673100       0.44812600
C        4.84681400       3.26591200       0.38875700
C        4.70729600       2.22641600      -0.52214900
C        3.54146900       1.49477300      -0.51608300
C        0.03167200       1.55405100       0.26885400
C       -1.12865700       0.81537100       0.24148500
C       -2.45169000       1.41470900       0.19552600
C       -3.59683100       0.79098400      -0.21707900
C       -4.82235700       1.42742100      -0.23790500
C       -4.93801500       2.73333500       0.16117400
C       -6.10442200       3.45880300       0.17881400
C       -6.19985700       4.77579200       0.58544400
N       -7.44440500       5.43795500       0.56117800
C       -5.03252000       5.41520200       1.00762600
C       -3.85461300       4.71303000       0.99924800
C       -3.78977800       3.40740100       0.59039000
C       -2.59044800       2.73501700       0.59541700
H       -7.79770400      -5.28343700       2.00448400
H       -7.10084800      -6.39724000       0.82159500
H       -6.48519500      -3.54399400      -0.36601100
H       -5.23593300      -1.78323700      -1.35246200
H       -3.21197000      -0.37494600      -1.43890200
H       -2.82289700      -4.25324100       2.89804100
H       -4.87264700      -5.64352100       2.94078600
H       -1.63889800      -2.51376000       1.89575500
H        0.25573300      -2.26724600       0.30654400
H        3.86928800       0.45861900      -0.32286100
H        5.94435100      -0.67898300      -0.25196900
H        7.20876700      -2.66209500       0.22310600
H        8.09239800      -5.43356000       1.85566900
H        8.14532800      -5.31401700       0.08584600
H        5.28128800      -6.14547200       1.63591100
H        3.11715200      -4.99189100       1.56627600
H        1.80835300      -3.02850800       1.10017600
H        1.88286700       3.00035500       1.93055300
H        3.13882100       4.75616900       2.85725800
H        5.24647400       6.13861400       2.93130900
H        7.32293700       6.83990100       1.47482600
H        8.25044600       5.34645700       1.19032700
H        6.77377800       3.81623000      -0.25032700
H        5.52873400       2.02790000      -1.20632700
H        3.50296200       0.68490500      -1.26817100
H       -0.02604200       2.62400700       0.25557000
H       -3.53235500      -0.23629800      -0.53667600
H       -5.72924900       0.90833500      -0.57560900
H       -7.00721500       2.95203700      -0.14651100
H       -7.96446200       5.59472000       1.44036500
H       -7.82500900       5.76727200      -0.34759600
H       -5.13618700       6.43909500       1.31905700
H       -2.94460500       5.22639100       1.33247400
H       -1.72541800       3.29899900       0.93578300
