84
Properties=species:S:1:pos:R:3 Conformer=T 1289:=T DA1=260 DA2=190 DFT_energy=-54165.874352999155 pbc="F F F"
N       -8.33034000      -3.34365200      -0.19515000
C       -7.07675400      -2.67705700      -0.14487600
C       -5.90340700      -3.36957400       0.11130300
C       -4.68615000      -2.71808000       0.15688000
C       -3.50302300      -3.39068400       0.41202600
C       -2.30080600      -2.69237700       0.44637900
C       -4.63017500      -1.36483900      -0.05459800
C       -5.78554100      -0.61308900      -0.31842200
C       -6.97618800      -1.32070100      -0.35028200
C       -3.44238100      -0.70022000      -0.01662600
C       -2.25385200      -1.33668200       0.23203500
C       -1.03284900      -0.55993900       0.25713700
C        0.21388100      -1.18774900       0.29908300
C        1.37867100      -0.43975600       0.32701300
C        2.65733100      -1.16709900       0.37434300
C        3.23356700      -1.70748700      -0.73739300
C        4.42681100      -2.39159500      -0.76726200
C        5.07071100      -2.52133400       0.46056000
C        6.27953600      -3.20764100       0.44649600
C        6.96539300      -3.37034900       1.61644100
N        8.21776300      -4.08194400       1.60721300
C        6.45148600      -2.85526900       2.77866900
C        5.23524400      -2.16711700       2.77892100
C        4.53723000      -1.99880000       1.60374600
C        3.31458200      -1.30762800       1.58697800
C        1.29492400       0.93817500       0.31238900
C        2.49168000       1.72515900       0.33988800
C        3.72411500       1.14826100       0.17845000
C        4.90822500       1.89835700       0.20039300
C        6.13405800       1.31389200       0.03166000
C        7.31491500       2.06285900       0.04770500
C        7.24134700       3.42625800       0.24029100
N        8.39753000       4.25461400       0.27100800
C        6.00469400       4.00019300       0.40843600
C        4.83844700       3.27846800       0.39358600
C        3.59629500       3.87814000       0.55856600
C        2.47093400       3.08630600       0.52607900
C        0.03167200       1.55405100       0.26885400
C       -1.12865700       0.81537100       0.24148500
C       -2.45169000       1.41470900       0.19552600
C       -3.06419000       1.91278000      -0.92134100
C       -4.32577900       2.47375200      -0.88812600
C       -5.02356700       2.55425100       0.28859000
C       -6.27950200       3.09179000       0.43280100
C       -6.96659500       3.16327200       1.62934200
N       -8.25198500       3.74075800       1.67656600
C       -6.34405600       2.65524300       2.77131800
C       -5.08974100       2.11340900       2.65430400
C       -4.43194900       2.05606000       1.45428000
C       -3.17453600       1.50544200       1.37520400
H       -8.74022200      -3.70134900      -1.10516600
H       -8.92366900      -3.52612900       0.64441700
H       -5.92934400      -4.43869100       0.28151600
H       -3.57391100      -4.45811300       0.57403300
H       -1.41119700      -3.27318600       0.65017800
H       -5.74842100       0.45491000      -0.48622500
H       -7.89524600      -0.77939500      -0.54795400
H       -3.43721700       0.38066300      -0.19459800
H        0.25573300      -2.26724600       0.30654400
H        2.74298500      -1.61241500      -1.72142700
H        4.80121500      -2.78170900      -1.68279700
H        6.69231100      -3.61468600      -0.46333700
H        9.12455500      -3.62139800       1.81947400
H        8.22594800      -5.08792600       1.38225000
H        7.00114900      -2.98748400       3.70275700
H        4.86737600      -1.77671000       3.69175800
H        2.95184100      -0.92642800       2.51157900
H        3.83220700       0.10247500       0.02862900
H        6.17279300       0.24623700      -0.11307200
H        8.28739200       1.61977000      -0.08622300
H        9.26001100       3.91976200       0.74377200
H        8.39214700       5.17848800      -0.16946800
H        5.93263000       5.06694600       0.56262700
H        3.56000800       4.95492600       0.70514200
H        1.51974000       3.63324100       0.66427200
H       -0.02604200       2.62400700       0.25557000
H       -2.53587400       1.86199800      -1.85937700
H       -4.79808300       2.87023200      -1.79679600
H       -6.75722700       3.47976400      -0.46103300
H       -9.08821500       3.13742400       1.74522500
H       -8.34372700       4.77508600       1.64608200
H       -6.90174200       2.72331100       3.68807600
H       -4.61109400       1.71832300       3.55846000
H       -2.75452200       1.13233900       2.30610900
