84
Properties=species:S:1:pos:R:3 Conformer=T 789:=T DA1=120 DA2=230 DFT_energy=-54161.86487710943 pbc="F F F"
N       -8.00952000      -3.81780900      -1.12826400
C       -6.77962500      -3.11607300      -1.01303600
C       -5.85399000      -3.44255900      -0.03397600
C       -4.65813700      -2.75940900       0.07315400
C       -3.72069900      -3.06893500       1.04407600
C       -2.52955700      -2.35430600       1.11208300
C       -4.37528600      -1.74141500      -0.80023100
C       -5.27460600      -1.36802100      -1.81087600
C       -6.45689900      -2.08795100      -1.86791600
C       -3.20277300      -1.05426000      -0.71628100
C       -2.25385200      -1.33668200       0.23203500
C       -1.03284900      -0.55993900       0.25713700
C        0.21388100      -1.18774900       0.29908300
C        1.37867100      -0.43975600       0.32701300
C        2.65733100      -1.16709900       0.37434300
C        2.97454600      -2.02465000       1.38627400
C        4.14456600      -2.74088100       1.49016200
C        5.05586900      -2.54777900       0.45516200
C        6.24214300      -3.26702700       0.54408000
C        7.18030600      -3.12626300      -0.43861100
N        8.41169100      -3.86839700      -0.35024000
C        6.93561900      -2.28200800      -1.49101000
C        5.73871000      -1.56492600      -1.56846600
C        4.78760000      -1.70087200      -0.58180600
C        3.57858600      -0.98883800      -0.64630600
C        1.29492400       0.93817500       0.31238900
C        2.49168000       1.72515900       0.33988800
C        3.52456500       1.47631300      -0.52555600
C        4.70408100       2.23389100      -0.51779500
C        5.72750800       1.98182300      -1.39060400
C        6.90178900       2.74122000      -1.38683400
C        7.03170500       3.77015900      -0.47811800
N        8.19583700       4.58517900      -0.41166200
C        5.99701300       4.01243500       0.39234000
C        4.83932500       3.27694100       0.39907700
C        3.80083700       3.54178400       1.28291500
C        2.66818900       2.76195400       1.22403600
C        0.03167200       1.55405100       0.26885400
C       -1.12865700       0.81537100       0.24148500
C       -2.45169000       1.41470900       0.19552600
C       -2.98023200       2.25584800       1.13560800
C       -4.25112800       2.78539700       1.02698400
C       -5.04520100       2.48071500      -0.04757000
C       -6.31991900       2.95002700      -0.25241400
C       -7.10461300       2.63061100      -1.34380900
N       -8.40640800       3.15924800      -1.46137600
C       -6.56764000       1.77238200      -2.30550600
C       -5.29694500       1.28957000      -2.12437600
C       -4.54161100       1.62335800      -1.03163100
C       -3.27087900       1.11956800      -0.88345500
H       -8.12282300      -4.65022000      -1.77505000
H       -8.87093600      -3.56902500      -0.59321400
H       -6.06147400      -4.24337700       0.66480800
H       -3.96710100      -3.87707300       1.72000100
H       -1.83755500      -2.64310000       1.89183200
H       -5.05764800      -0.56576400      -2.50331300
H       -7.18308100      -1.83153600      -2.63189600
H       -3.01063400      -0.24982900      -1.43460100
H        0.25573300      -2.26724600       0.30654400
H        2.26519300      -2.19626800       2.21416200
H        4.30853800      -3.38747500       2.31817300
H        6.44244700      -3.93481500       1.36736900
H        8.66396000      -4.61627200      -1.02586900
H        9.07572300      -3.65733300       0.40948900
H        7.68385900      -2.17576700      -2.26715400
H        5.57723700      -0.92495200      -2.39634000
H        3.43112700      -0.34353700      -1.47914700
H        3.47217500       0.69437900      -1.24223700
H        5.61040100       1.17057000      -2.09095300
H        7.71562400       2.55850300      -2.06820200
H        9.13424300       4.15557400      -0.53141000
H        8.12143700       5.59292700      -0.24887100
H        6.08643700       4.81388900       1.11109300
H        3.92174600       4.35998500       1.98874600
H        1.88552300       3.03182200       1.95725500
H       -0.02604200       2.62400700       0.25557000
H       -2.37587000       2.51045200       1.99090400
H       -4.65701000       3.45708400       1.79512700
H       -6.72694900       3.62013600       0.49789600
H       -8.59230400       3.93595900      -2.11724700
H       -9.17082700       2.75513800      -0.88558200
H       -7.19975200       1.54155100      -3.14410200
H       -4.88662300       0.61590100      -2.88628200
H       -2.92222800       0.45708300      -1.67197100
