84
Properties=species:S:1:pos:R:3 Conformer=T 1229:=T DA1=250 DA2=-50 DFT_energy=-54166.599668278184 pbc="F F F"
N       -6.90637900      -5.55365200      -1.07382900
C       -5.75448800      -4.72904100      -0.96650600
C       -5.68271700      -3.71201300      -0.02711500
C       -4.55984700      -2.91399800       0.07569400
C       -4.46824600      -1.89259900       1.00609100
C       -3.31644700      -1.11611100       1.07363800
C       -3.49510500      -3.12627800      -0.76119300
C       -3.51217000      -4.14108400      -1.73046100
C       -4.66496600      -4.90739900      -1.78695500
C       -2.37647700      -2.35438400      -0.67833100
C       -2.25385200      -1.33668200       0.23203500
C       -1.03284900      -0.55993900       0.25713700
C        0.21388100      -1.18774900       0.29908300
C        1.37867100      -0.43975600       0.32701300
C        2.65733100      -1.16709900       0.37434300
C        3.13605300      -1.87570600      -0.68807200
C        4.32291700      -2.57090400      -0.71600900
C        5.07042500      -2.52201700       0.45780000
C        6.27417800      -3.21719600       0.44443100
C        7.05852600      -3.21012500       1.56264100
N        8.30610100      -3.93010100       1.55413600
C        6.64627800      -2.51968500       2.67328300
C        5.43394400      -1.82467200       2.67340500
C        4.63702800      -1.82683900       1.55023600
C        3.41684000      -1.13132700       1.53368600
C        1.29492400       0.93817500       0.31238900
C        2.49168000       1.72515900       0.33988800
C        2.69734400       2.73555400      -0.56264900
C        3.85962900       3.51930000      -0.55393400
C        4.05295300       4.53056200      -1.45543900
C        5.20975400       5.31624200      -1.44314400
C        6.18162900       5.06355900      -0.49817400
N        7.38560000       5.81770400      -0.42337200
C        5.97502200       4.04558400       0.40072700
C        4.84510600       3.26806900       0.40137500
C        4.65119800       2.24723800       1.32336900
C        3.48772900       1.51434600       1.26252700
C        0.03167200       1.55405100       0.26885400
C       -1.12865700       0.81537100       0.24148500
C       -2.45169000       1.41470900       0.19552600
C       -2.98867500       2.08342400      -0.86988000
C       -4.25563000       2.63233400      -0.83949700
C       -5.03626500       2.52569900       0.28179100
C       -6.30521900       3.03390100       0.41819300
C       -7.07649600       2.91522200       1.55835200
N       -8.36837300       3.47822500       1.60342300
C       -6.53117400       2.23269800       2.64763600
C       -5.26572400       1.71595100       2.53722400
C       -4.52358100       1.84914200       1.39375600
C       -3.25764300       1.31771600       1.31954200
H       -6.98431500      -6.47909000      -0.56239100
H       -7.74155100      -5.31016900      -1.65124700
H       -6.51492000      -3.52982500       0.64139300
H       -5.32115400      -1.74648700       1.65561000
H       -3.30497100      -0.33410600       1.82104300
H       -2.67546400      -4.31397500      -2.39392900
H       -4.72328900      -5.70171400      -2.52344400
H       -1.54446100      -2.55694400      -1.36150500
H        0.25573300      -2.26724600       0.30654400
H        2.56234800      -1.92400000      -1.62964700
H        4.61733900      -3.09896700      -1.59067300
H        6.60733300      -3.76160200      -0.42533600
H        9.22738700      -3.45385100       1.61615700
H        8.29579900      -4.95851500       1.48389400
H        7.27370900      -2.51785200       3.55638900
H        5.14580100      -1.29680400       3.54481000
H        3.13482900      -0.61085100       2.41763000
H        1.97907200       2.96727900      -1.30976900
H        3.28461100       4.71082500      -2.18994000
H        5.37691000       6.11757000      -2.14307800
H        7.86854300       6.10704400      -1.29661500
H        7.78311100       6.08187600       0.48205100
H        6.72926200       3.83517300       1.14489100
H        5.42793400       2.06696400       2.06259300
H        3.40409900       0.72008900       2.02748900
H       -0.02604200       2.62400700       0.25557000
H       -2.39439400       2.18165600      -1.76362900
H       -4.66646600       3.16775300      -1.70580500
H       -6.72242300       3.55857300      -0.43523800
H       -9.20056000       2.87180800       1.51552000
H       -8.46928700       4.50435700       1.73011000
H       -7.15342800       2.15490800       3.52104400
H       -4.84825600       1.18262200       3.39976400
H       -2.90080600       0.80187100       2.20767100
