84
Properties=species:S:1:pos:R:3 Conformer=T 1123:=T DA1=220 DA2=-30 DFT_energy=-54130.623021004074 pbc="F F F"
N       -6.72709700      -5.84953400      -0.63881200
C       -5.58743200      -5.00468600      -0.56297800
C       -5.65470500      -3.75822100       0.04014000
C       -4.54361600      -2.94075200       0.11403900
C       -4.58961600      -1.69227900       0.71110300
C       -3.44437500      -0.90498800       0.76340200
C       -3.35156900      -3.36310100      -0.41488700
C       -3.22501000      -4.61490800      -1.03663100
C       -4.37291100      -5.38928800      -1.08165500
C       -2.24187300      -2.57648800      -0.35299200
C       -2.25385200      -1.33668200       0.23203500
C       -1.03284900      -0.55993900       0.25713700
C        0.21388100      -1.18774900       0.29908300
C        1.37867100      -0.43975600       0.32701300
C        2.65733100      -1.16709900       0.37434300
C        2.88319900      -2.29842000      -0.35306400
C        4.05286800      -3.02265100      -0.36262100
C        5.06822000      -2.52634700       0.45084600
C        6.25787500      -3.24550700       0.44978900
C        7.29664300      -2.81352900       1.22438600
N        8.53092900      -3.55609800       1.22770300
C        7.14791500      -1.68258100       1.98532000
C        5.94664400      -0.96866500       1.97706300
C        4.89427300      -1.39745400       1.19908800
C        3.68120500      -0.68971700       1.17808400
C        1.29492400       0.93817500       0.31238900
C        2.49168000       1.72515900       0.33988800
C        2.54447900       2.95734500      -0.25735400
C        3.70377700       3.74540200      -0.24199000
C        3.74467400       4.97770200      -0.83570700
C        4.89930500       5.76640400      -0.81540000
C        6.02659700       5.28824600      -0.18141600
N        7.23867700       6.03053600      -0.12021800
C        5.97202500       4.04980300       0.41041500
C        4.84640700       3.26615300       0.39958300
C        4.80860300       2.01882700       1.00992300
C        3.63937300       1.29430200       0.96035800
C        0.03167200       1.55405100       0.26885400
C       -1.12865700       0.81537100       0.24148500
C       -2.45169000       1.41470900       0.19552600
C       -2.80498700       2.51445100      -0.53684800
C       -4.08534100       3.03214800      -0.52777000
C       -5.06793300       2.45190400       0.23109800
C       -6.36900300       2.88504100       0.31312500
C       -7.34547400       2.28514700       1.08484200
N       -8.65408300       2.80951700       1.10779800
C       -6.98794900       1.16193200       1.83338800
C       -5.69499700       0.70944400       1.76926100
C       -4.74728300       1.32475500       0.99513800
C       -3.46020900       0.84266200       0.95581000
H       -6.92785800      -6.58904700       0.09391800
H       -7.43417900      -5.80128300      -1.40556800
H       -6.58849800      -3.40837900       0.46239300
H       -5.54148500      -1.38289600       1.12208200
H       -3.54363600       0.05975500       1.24266700
H       -2.28740300      -4.95429900      -1.45599400
H       -4.32208600      -6.36365800      -1.55575800
H       -1.30626100      -2.95007200      -0.78319500
H        0.25573300      -2.26724600       0.30654400
H        2.09416700      -2.70659900      -1.00793200
H        4.14010300      -3.89699000      -0.96136500
H        6.38447800      -4.13526800      -0.14700500
H        9.41776600      -3.16906600       0.84934200
H        8.54596400      -4.50998300       1.61828200
H        7.97616700      -1.34538600       2.59675000
H        5.86467200      -0.09637300       2.57154100
H        3.60861400       0.18090000       1.78515800
H        1.70309200       3.36770800      -0.75882000
H        2.85542600       5.33345800      -1.33069200
H        4.94814700       6.73925000      -1.27492200
H        7.55401300       6.57317200      -0.94823600
H        7.80551300       6.03907700       0.73196500
H        6.84861700       3.66193200       0.90848300
H        5.70698500       1.66200200       1.50777400
H        3.68496500       0.31255100       1.46740000
H       -0.02604200       2.62400700       0.25557000
H       -2.04996600       2.98967600      -1.14158900
H       -4.34685700       3.91808100      -1.12163900
H       -6.63863600       3.75575800      -0.27580100
H       -9.40931000       2.33939900       0.58184700
H       -8.84616800       3.66714800       1.66165200
H       -7.76753700       0.71513600       2.42390400
H       -5.42637800      -0.17313900       2.36220700
H       -3.25716500      -0.03398300       1.56611200
