84
Properties=species:S:1:pos:R:3 Conformer=T 161:=T DA1=-50 DA2=70 DFT_energy=-54166.98793650701 pbc="F F F"
N       -7.24317200      -5.11199600       1.64193100
C       -6.06457500      -4.32318700       1.55801900
C       -5.73387300      -3.64523500       0.39484700
C       -4.58820800      -2.87725000       0.31812500
C       -4.23923500      -2.19312400      -0.83403600
C       -3.07648100      -1.43071800      -0.86363600
C       -3.76069400      -2.77884000       1.40654300
C       -4.04557600      -3.44285800       2.60967500
C       -5.20673000      -4.19838700       2.62597700
C       -2.62673600      -2.02674800       1.35643900
C       -2.25385200      -1.33668200       0.23203500
C       -1.03284900      -0.55993900       0.25713700
C        0.21388100      -1.18774900       0.29908300
C        1.37867100      -0.43975600       0.32701300
C        2.65733100      -1.16709900       0.37434300
C        3.68904100      -0.88958800      -0.47335100
C        4.91052700      -1.52255800      -0.48033200
C        5.06855400      -2.52425800       0.47392700
C        6.29882100      -3.17144700       0.48171600
C        6.52233000      -4.16377000       1.39329900
N        7.79504600      -4.83827100       1.40442900
C        5.53338200      -4.50167000       2.28098600
C        4.30111000      -3.84290800       2.26265100
C        4.06743800      -2.84141500       1.34668100
C        2.83505700      -2.16820100       1.31690300
C        1.29492400       0.93817500       0.31238900
C        2.49168000       1.72515900       0.33988800
C        2.83177000       2.46099300       1.44472000
C        3.99811500       3.23712100       1.49477600
C        4.33255500       3.96348500       2.60530800
C        5.49899000       4.73312200       2.65748400
C        6.33295000       4.76154100       1.55973100
N        7.53523500       5.52169200       1.53606800
C        5.98543600       4.02797200       0.45153600
C        4.84565500       3.26774400       0.38678900
C        4.51470800       2.52692200      -0.74078500
C        3.35582400       1.78444000      -0.72667800
C        0.03167200       1.55405100       0.26885400
C       -1.12865700       0.81537100       0.24148500
C       -2.45169000       1.41470900       0.19552600
C       -3.44584600       1.08838000      -0.68526100
C       -4.68114600       1.70584500      -0.67214400
C       -4.96125600       2.68818300       0.24142000
C       -6.15246300       3.36516200       0.34064900
C       -6.41507400       4.35319600       1.27002400
N       -7.66996500       4.99575400       1.28783200
C       -5.40220600       4.68832400       2.17088200
C       -4.20317700       4.02742200       2.09265700
C       -3.97076500       3.05155800       1.16007500
C       -2.75548600       2.41026700       1.11146900
H       -8.15625500      -4.72004700       2.01170800
H       -7.29245600      -6.11309900       1.34940100
H       -6.37574000      -3.71253900      -0.47471300
H       -4.90948600      -2.28586400      -1.67833500
H       -2.85811900      -0.91977600      -1.79182500
H       -3.39693300      -3.36944300       3.47224600
H       -5.46505700      -4.73147600       3.53473300
H       -1.99262100      -1.96910300       2.24783400
H        0.25573300      -2.26724600       0.30654400
H        3.58721500      -0.09656000      -1.23412100
H        5.65902200      -1.24105000      -1.18110300
H        7.08323700      -2.91106500      -0.21165200
H        8.46218600      -4.76125700       2.19716000
H        8.06449200      -5.42272400       0.59914100
H        5.71782000      -5.28918300       3.00164800
H        3.55952000      -4.12323300       2.96442000
H        2.09544800      -2.46380300       2.02215500
H        2.22128200       2.47234600       2.31361300
H        3.66642800       3.93304600       3.45247000
H        5.77884600       5.30833600       3.52396200
H        7.55721500       6.46640600       1.96796700
H        8.38256800       5.14871100       1.09960000
H        6.62843100       4.04305900      -0.41636900
H        5.18777800       2.55993700      -1.59410600
H        3.15888800       1.22176000      -1.65813500
H       -0.02604200       2.62400700       0.25557000
H       -3.25025100       0.31913900      -1.41438300
H       -5.46459000       1.43007500      -1.39055400
H       -6.93522200       3.09454400      -0.36059200
H       -8.36637700       4.75126800       2.01118600
H       -7.87972100       5.71686500       0.57007000
H       -5.63421700       5.45963700       2.88316100
H       -3.41540400       4.30004100       2.80524800
H       -2.01645200       2.72616900       1.84375000
