84
Properties=species:S:1:pos:R:3 Conformer=T 880:=T DA1=150 DA2=60 DFT_energy=-54159.550140132254 pbc="F F F"
N       -7.10421200      -5.32684300       1.53078200
C       -5.93556500      -4.52262900       1.45423800
C       -5.71234700      -3.67850900       0.37739700
C       -4.57589800      -2.89627200       0.30794100
C       -4.33343600      -2.04747500      -0.75884900
C       -3.17559200      -1.27748400      -0.78430600
C       -3.64995500      -2.95003400       1.31732600
C       -3.82376700      -3.78576500       2.43130200
C       -4.98123400      -4.54699200       2.44452300
C       -2.52273600      -2.18752900       1.27284200
C       -2.25385200      -1.33668200       0.23203500
C       -1.03284900      -0.55993900       0.25713700
C        0.21388100      -1.18774900       0.29908300
C        1.37867100      -0.43975600       0.32701300
C        2.65733100      -1.16709900       0.37434300
C        2.78098600      -2.39268300       0.95973000
C        3.93999500      -3.13022500       1.03360200
C        5.05900700      -2.54265100       0.44917700
C        6.23760100      -3.27704400       0.51285400
C        7.37371400      -2.76045500      -0.04214900
N        8.59775400      -3.51704700       0.02247800
C        7.33103100      -1.53216200      -0.65014300
C        6.13952200      -0.80427900      -0.70749600
C        4.98956600      -1.31773400      -0.15022100
C        3.78356900      -0.59954100      -0.20157100
C        1.29492400       0.93817500       0.31238900
C        2.49168000       1.72515900       0.33988800
C        2.73266800       2.61487100       1.35384300
C        3.89689500       3.39428000       1.40222100
C        4.13161900       4.27542900       2.42262100
C        5.29566700       5.04872300       2.47403500
C        6.23054100       4.92045700       1.46859300
N        7.43739200       5.67348300       1.45012300
C        5.98250600       4.03247100       0.45028800
C        4.84628400       3.26675700       0.38767800
C        4.61650900       2.36884100      -0.64707600
C        3.45395000       1.63206700      -0.63642700
C        0.03167200       1.55405100       0.26885400
C       -1.12865700       0.81537100       0.24148500
C       -2.45169000       1.41470900       0.19552600
C       -2.79964300       2.62357300       0.73236800
C       -4.08249200       3.12901700       0.65347300
C       -5.07358900       2.42343500       0.02265400
C       -6.37830700       2.83196000      -0.11128300
C       -7.36326800       2.10502400      -0.75185300
N       -8.67815400       2.60764600      -0.83182600
C       -7.01102800       0.87061100      -1.30131400
C       -5.71475600       0.43960000      -1.18093300
C       -4.75869400       1.18186300      -0.53982000
C       -3.46858600       0.71726000      -0.43840400
H       -7.97723700      -5.00228100       2.03730500
H       -7.18447600      -6.27479300       1.10048200
H       -6.43289200      -3.62417200      -0.42915200
H       -5.07997800      -2.02227700      -1.54161100
H       -3.04291700      -0.63406800      -1.64377600
H       -3.09710500      -3.83296800       3.23123500
H       -5.15560000      -5.20986700       3.28532500
H       -1.80790700      -2.25469300       2.10019800
H        0.25573300      -2.26724600       0.30654400
H        1.90610600      -2.87891000       1.42470600
H        3.94467200      -4.07957800       1.51243300
H        6.28012600      -4.24488900       0.98754700
H        9.06118800      -3.90473000      -0.82272100
H        9.03955600      -3.68650200       0.93832200
H        8.23573900      -1.12889100      -1.08880500
H        6.13771500       0.13896100      -1.18844400
H        3.79613200       0.35007500      -0.68100200
H        2.04242600       2.75006500       2.14951000
H        3.38763000       4.36591500       3.19762300
H        5.49772100       5.74468500       3.27077000
H        7.42791200       6.67097800       1.74067500
H        8.31852100       5.24415800       1.15536500
H        6.70528500       3.92369900      -0.34513000
H        5.36802200       2.28003400      -1.42785200
H        3.34074700       0.93937100      -1.49104000
H       -0.02604200       2.62400700       0.25557000
H       -2.03824300       3.19776200       1.23454800
H       -4.34087300       4.10119100       1.09400100
H       -6.64150000       3.79472000       0.31475300
H       -9.02436200       3.01287000      -1.71722900
H       -9.29015200       2.56011600       0.00625500
H       -7.79685500       0.32696000      -1.79427700
H       -5.45065900      -0.53180000      -1.61605300
H       -3.27072200      -0.25218900      -0.88920300
