84
Properties=species:S:1:pos:R:3 Conformer=T 1271:=T DA1=260 DA2=10 DFT_energy=-54166.502434022244 pbc="F F F"
N       -6.65625400      -5.99588100       0.44378500
C       -5.52045700      -5.14246600       0.44263400
C       -5.64325800      -3.78164100       0.20805400
C       -4.53665300      -2.95480600       0.21025200
C       -4.63731300      -1.59358800      -0.02263900
C       -3.49501600      -0.80042700      -0.00879200
C       -3.29380800      -3.48179900       0.44843300
C       -3.10998300      -4.85159800       0.69228300
C       -4.25573500      -5.63029000       0.67610900
C       -2.18801500      -2.68734800       0.45761500
C       -2.25385200      -1.33668200       0.23203500
C       -1.03284900      -0.55993900       0.25713700
C        0.21388100      -1.18774900       0.29908300
C        1.37867100      -0.43975600       0.32701300
C        2.65733100      -1.16709900       0.37434300
C        3.23356700      -1.70748700      -0.73739300
C        4.42681100      -2.39159500      -0.76726200
C        5.07071100      -2.52133400       0.46056000
C        6.27953600      -3.20764100       0.44649600
C        6.96539300      -3.37034900       1.61644100
N        8.21776300      -4.08194400       1.60721300
C        6.45148600      -2.85526900       2.77866900
C        5.23524400      -2.16711700       2.77892100
C        4.53723000      -1.99880000       1.60374600
C        3.31458200      -1.30762800       1.58697800
C        1.29492400       0.93817500       0.31238900
C        2.49168000       1.72515900       0.33988800
C        2.44470400       3.08161100       0.52856400
C        3.60242100       3.87149500       0.56043100
C        3.54565300       5.22473400       0.75602600
C        4.70085800       6.01195600       0.79365800
C        5.92927100       5.40798100       0.62760800
N        7.14804700       6.14139300       0.65146200
C        5.97207400       4.04897300       0.43203000
C        4.84769200       3.26438600       0.39424700
C        4.91183900       1.89006000       0.20220000
C        3.73872400       1.17042200       0.18187300
C        0.03167200       1.55405100       0.26885400
C       -1.12865700       0.81537100       0.24148500
C       -2.45169000       1.41470900       0.19552600
C       -3.06419000       1.91278000      -0.92134100
C       -4.32577900       2.47375200      -0.88812600
C       -5.02356700       2.55425100       0.28859000
C       -6.27950200       3.09179000       0.43280100
C       -6.96659500       3.16327200       1.62934200
N       -8.25198500       3.74075800       1.67656600
C       -6.34405600       2.65524300       2.77131800
C       -5.08974100       2.11340900       2.65430400
C       -4.43194900       2.05606000       1.45428000
C       -3.17453600       1.50544200       1.37520400
H       -7.18030500      -6.23230800       1.33460000
H       -7.04811500      -6.44013600      -0.41603600
H       -6.61732500      -3.34867900       0.01728100
H       -5.62912300      -1.20219600      -0.20649400
H       -3.63832800       0.25514000      -0.19724700
H       -2.13212400      -5.27391600       0.88095300
H       -4.16048200      -6.69566100       0.85684400
H       -1.21231600      -3.14425300       0.65575200
H        0.25573300      -2.26724600       0.30654400
H        2.74298500      -1.61241500      -1.72142700
H        4.80121500      -2.78170900      -1.68279700
H        6.69231100      -3.61468600      -0.46333700
H        9.12455500      -3.62139800       1.81947400
H        8.22594800      -5.08792600       1.38225000
H        7.00114900      -2.98748400       3.70275700
H        4.86737600      -1.77671000       3.69175800
H        2.95184100      -0.92642800       2.51157900
H        1.52283400       3.59225800       0.65968600
H        2.57642800       5.68050200       0.87937800
H        4.67470700       7.07734700       0.94933100
H        7.19716800       7.07571200       0.19964400
H        7.97973700       5.76089600       1.11092400
H        6.92758500       3.56317300       0.29813900
H        5.89047200       1.43295900       0.07727700
H        3.86874500       0.08348500       0.02481200
H       -0.02604200       2.62400700       0.25557000
H       -2.53587400       1.86199800      -1.85937700
H       -4.79808300       2.87023200      -1.79679600
H       -6.75722700       3.47976400      -0.46103300
H       -9.08821500       3.13742400       1.74522500
H       -8.34372700       4.77508600       1.64608200
H       -6.90174200       2.72331100       3.68807600
H       -4.61109400       1.71832300       3.55846000
H       -2.75452200       1.13233900       2.30610900
