84
Properties=species:S:1:pos:R:3 Conformer=T 691:=T DA1=100 DA2=-30 DFT_energy=-54167.62148259099 pbc="F F F"
N       -6.72709700      -5.84953400      -0.63881200
C       -5.58743200      -5.00468600      -0.56297800
C       -5.65470500      -3.75822100       0.04014000
C       -4.54361600      -2.94075200       0.11403900
C       -4.58961600      -1.69227900       0.71110300
C       -3.44437500      -0.90498800       0.76340200
C       -3.35156900      -3.36310100      -0.41488700
C       -3.22501000      -4.61490800      -1.03663100
C       -4.37291100      -5.38928800      -1.08165500
C       -2.24187300      -2.57648800      -0.35299200
C       -2.25385200      -1.33668200       0.23203500
C       -1.03284900      -0.55993900       0.25713700
C        0.21388100      -1.18774900       0.29908300
C        1.37867100      -0.43975600       0.32701300
C        2.65733100      -1.16709900       0.37434300
C        3.15536700      -1.69755600       1.52785900
C        4.33648300      -2.39353400       1.64320700
C        5.05475200      -2.54939400       0.46050500
C        6.24937200      -3.25328600       0.55996300
C        7.00381200      -3.44459700      -0.56247400
N        8.24312300      -4.17215700      -0.46425500
C        6.57052200      -2.94149100      -1.76219300
C        5.36741400      -2.23588000      -1.84845500
C        4.60082300      -2.03831800      -0.72155700
C        3.38807500      -1.33324100      -0.79211400
C        1.29492400       0.93817500       0.31238900
C        2.49168000       1.72515900       0.33988800
C        2.54447900       2.95734500      -0.25735400
C        3.70377700       3.74540200      -0.24199000
C        3.74467400       4.97770200      -0.83570700
C        4.89930500       5.76640400      -0.81540000
C        6.02659700       5.28824600      -0.18141600
N        7.23867700       6.03053600      -0.12021800
C        5.97202500       4.04980300       0.41041500
C        4.84640700       3.26615300       0.39958300
C        4.80860300       2.01882700       1.00992300
C        3.63937300       1.29430200       0.96035800
C        0.03167200       1.55405100       0.26885400
C       -1.12865700       0.81537100       0.24148500
C       -2.45169000       1.41470900       0.19552600
C       -3.13389900       1.92653200       1.26475600
C       -4.39426800       2.47851900       1.14567600
C       -5.02024100       2.53392800      -0.07216500
C       -6.26897000       3.05877600      -0.30092300
C       -6.88282200       3.10533500      -1.53782800
N       -8.17249300       3.65961400      -1.67000700
C       -6.18868500       2.58392600      -2.63147500
C       -4.94018200       2.05370300      -2.42976900
C       -4.35605600       2.02072400      -1.19132500
C       -3.10222300       1.48086100      -1.02709800
H       -6.92785800      -6.58904700       0.09391800
H       -7.43417900      -5.80128300      -1.40556800
H       -6.58849800      -3.40837900       0.46239300
H       -5.54148500      -1.38289600       1.12208200
H       -3.54363600       0.05975500       1.24266700
H       -2.28740300      -4.95429900      -1.45599400
H       -4.32208600      -6.36365800      -1.55575800
H       -1.30626100      -2.95007200      -0.78319500
H        0.25573300      -2.26724600       0.30654400
H        2.60038600      -1.58998200       2.47572900
H        4.64900500      -2.77146800       2.58664000
H        6.59719800      -3.65418700       1.49919800
H        8.38746500      -5.09535600      -0.91845800
H        9.02388000      -3.77019600       0.07567100
H        7.17362100      -3.09757100      -2.64845500
H        5.05747600      -1.86431600      -2.79020500
H        3.09101800      -0.95857900      -1.74246500
H        1.70309200       3.36770800      -0.75882000
H        2.85542600       5.33345800      -1.33069200
H        4.94814700       6.73925000      -1.27492200
H        7.55401300       6.57317200      -0.94823600
H        7.80551300       6.03907700       0.73196500
H        6.84861700       3.66193200       0.90848300
H        5.70698500       1.66200200       1.50777400
H        3.68496500       0.31255100       1.46740000
H       -0.02604200       2.62400700       0.25557000
H       -2.66345600       1.89424200       2.23390500
H       -4.92545800       2.88159500       2.01820900
H       -6.79875900       3.46593300       0.55419800
H       -8.29108400       4.60439700      -2.07166200
H       -8.99572400       3.10502200      -1.36357800
H       -6.68971400       2.63391400      -3.58150800
H       -4.40540000       1.64674600      -3.29642300
H       -2.62514300       1.09356400      -1.92409200
