84
Properties=species:S:1:pos:R:3 Conformer=T 1099:=T DA1=210 DA2=90 DFT_energy=-54166.66357116819 pbc="F F F"
N       -7.53944000      -4.64892800       1.72391600
C       -6.33979000      -3.89305800       1.63528100
C       -5.77983200      -3.57341600       0.40799700
C       -4.61454700      -2.83610200       0.32604200
C       -4.03844100      -2.50697700      -0.88930400
C       -2.86515800      -1.76101400      -0.92222000
C       -3.99697100      -2.40957600       1.47312200
C       -4.51874300      -2.70335100       2.74239400
C       -5.68779600      -3.44654300       2.76113000
C       -2.84858100      -1.68002700       1.41859700
C       -2.25385200      -1.33668200       0.23203500
C       -1.03284900      -0.55993900       0.25713700
C        0.21388100      -1.18774900       0.29908300
C        1.37867100      -0.43975600       0.32701300
C        2.65733100      -1.16709900       0.37434300
C        2.82068900      -2.39772500      -0.19036800
C        3.98585500      -3.12924100      -0.19022500
C        5.06711000      -2.52840500       0.44920500
C        6.25291600      -3.25386900       0.45524500
C        7.35420800      -2.72275900       1.06411500
N        8.58487800      -3.47124500       1.07419000
C        7.27059500      -1.48838600       1.65531300
C        6.07241800      -0.76936700       1.64188400
C        4.95727900      -1.29767000       1.03036700
C        3.74625500      -0.58653600       1.00632600
C        1.29492400       0.93817500       0.31238900
C        2.49168000       1.72515900       0.33988800
C        3.04975800       2.12668800       1.52525300
C        4.22068800       2.89580100       1.57652500
C        4.77409500       3.28644100       2.76559100
C        5.94537700       4.04873500       2.81697900
C        6.55742700       4.41745900       1.63765900
N        7.74938200       5.19351500       1.60836300
C        5.99147300       4.01880500       0.45117100
C        4.84418400       3.27002000       0.38568100
C        4.29068200       2.87050900      -0.82419300
C        3.13990500       2.11558900      -0.80692900
C        0.03167200       1.55405100       0.26885400
C       -1.12865700       0.81537100       0.24148500
C       -2.45169000       1.41470900       0.19552600
C       -2.76425100       2.61659100      -0.37754200
C       -4.04772000       3.12659700      -0.37911600
C       -5.07527700       2.43375300       0.20581500
C       -6.38365400       2.84872100       0.26123900
C       -7.40580100       2.13444000       0.85616100
N       -8.71851300       2.64884400       0.86727400
C       -7.08991200       0.90682000       1.44175500
C       -5.79069000       0.46991300       1.40031800
C       -4.79722600       1.19980300       0.80338800
C       -3.50530000       0.72974100       0.78127700
H       -8.49116600      -4.18642200       1.79012600
H       -7.56770200      -5.69266700       1.72822300
H       -6.25393300      -3.90293300      -0.50813800
H       -4.54589300      -2.85414100      -1.77961000
H       -2.46406000      -1.53567900      -1.90131200
H       -4.03650300      -2.36986100       3.65145200
H       -6.12535100      -3.69954600       3.72096800
H       -2.38640600      -1.35360900       2.35660200
H        0.25573300      -2.26724600       0.30654400
H        1.97850500      -2.89029900      -0.70624600
H        4.02195100      -4.08477700      -0.65521800
H        6.32841600      -4.22483400      -0.00885900
H        9.43541800      -3.15638200       0.56736300
H        8.63443600      -4.35553200       1.60169000
H        8.14817300      -1.07299800       2.13579000
H        6.04119900       0.18344000       2.10253500
H        3.72547100       0.36639900       1.47883300
H        2.61472700       1.86895600       2.45912800
H        4.27945300       2.99296600       3.67747800
H        6.39591300       4.36229400       3.74362500
H        7.87247100       5.97607600       2.28063700
H        8.49097300       4.98968100       0.93302200
H        6.45916300       4.30269500      -0.48028100
H        4.79103300       3.16844500      -1.74242700
H        2.75877100       1.83539800      -1.80654700
H       -0.02604200       2.62400700       0.25557000
H       -1.97346700       3.18139100      -0.84366500
H       -4.27620300       4.09542200      -0.84292800
H       -6.62041400       3.80174200      -0.20069300
H       -9.42907600       2.26806800       0.22065500
H       -8.95912500       3.40803000       1.53429900
H       -7.90450400       0.37234800       1.89658700
H       -5.55509300      -0.49545900       1.86426300
H       -3.33641000      -0.23250200       1.25852600
