84
Properties=species:S:1:pos:R:3 Conformer=T 62:=T DA1=-80 DA2=160 DFT_energy=-54166.62555423479 pbc="F F F"
N       -8.31542100      -3.39382300       0.63162300
C       -7.06201600      -2.72504800       0.62324800
C       -5.90074700      -3.37790000       0.23959400
C       -4.68432300      -2.72332900       0.23043900
C       -3.51289600      -3.35705600      -0.14829000
C       -2.31153100      -2.65646000      -0.14335500
C       -4.61732500      -1.40635200       0.60487000
C       -5.76029400      -0.69545500       1.00217200
C       -6.95034600      -1.40471500       0.99237700
C       -3.43059800      -0.73875200       0.60252900
C       -2.25385200      -1.33668200       0.23203500
C       -1.03284900      -0.55993900       0.25713700
C        0.21388100      -1.18774900       0.29908300
C        1.37867100      -0.43975600       0.32701300
C        2.65733100      -1.16709900       0.37434300
C        3.43101200      -1.36003700      -0.73210000
C        4.63684200      -2.02183100      -0.75909400
C        5.07054700      -2.52125200       0.46624800
C        6.28916500      -3.19008800       0.45611700
C        6.77510700      -3.70434700       1.62446700
N        8.03674900      -4.39940900       1.61882300
C        6.05531800      -3.55154300       2.78150500
C        4.83163600      -2.87671800       2.77793800
C        4.33438500      -2.35536500       1.60425900
C        3.10712900      -1.67248900       1.58449800
C        1.29492400       0.93817500       0.31238900
C        2.49168000       1.72515900       0.33988800
C        3.67721600       1.19851200       0.78138100
C        4.86073000       1.94907500       0.81592300
C        6.04138100       1.41216800       1.25242000
C        7.22330200       2.15906700       1.28142300
C        7.19713700       3.47182300       0.86030200
N        8.35702600       4.29555200       0.86213500
C        6.00551500       3.99837600       0.42468400
C        4.83922400       3.27743100       0.38942000
C        3.64501800       3.82570200      -0.06117600
C        2.51778200       3.03593500      -0.07121200
C        0.03167200       1.55405100       0.26885400
C       -1.12865700       0.81537100       0.24148500
C       -2.45169000       1.41470900       0.19552600
C       -3.22324600       1.56144600      -0.92420300
C       -4.47370900       2.14687300      -0.89234200
C       -4.99721800       2.61218300       0.28557000
C       -6.22596000       3.20963700       0.42826700
C       -6.73594600       3.67218100       1.62613300
N       -8.00816100       4.27844300       1.66932000
C       -5.95075100       3.52344700       2.77116800
C       -4.71968000       2.93041500       2.65559500
C       -4.23935600       2.48119500       1.45412700
C       -2.99969700       1.89149900       1.37651700
H       -8.97403700      -3.36309900      -0.19865400
H       -8.66838800      -3.95311600       1.43959200
H       -5.93525200      -4.41841900      -0.05837700
H       -3.59274600      -4.39571300      -0.44067900
H       -1.43139200      -3.20590200      -0.44953400
H       -5.71444500       0.34381500       1.29877700
H       -7.85919500      -0.89562700       1.29499500
H       -3.41754900       0.31423400       0.90429100
H        0.25573300      -2.26724600       0.30654400
H        3.10884200      -0.96865900      -1.71243800
H        5.17330100      -2.12682600      -1.67110300
H        6.86309700      -3.31351300      -0.44899900
H        8.87762100      -4.03663300       2.10949300
H        8.11956800      -5.29260100       1.11086200
H        6.44709700      -3.96138200       3.70459200
H        4.30205700      -2.77073700       3.68861300
H        2.58097200      -1.57887900       2.50437700
H        3.74742900       0.19337200       1.11688200
H        6.04210300       0.38573800       1.58223300
H        8.16141600       1.75175300       1.61907900
H        9.03195400       4.23491000       1.64972600
H        8.53756900       4.94812100       0.09457300
H        5.97017200       5.02622400       0.09421300
H        3.64679200       4.86130800      -0.39251500
H        1.60630700       3.54027300      -0.44251100
H       -0.02604200       2.62400700       0.25557000
H       -2.83372900       1.20417100      -1.86347900
H       -5.07558500       2.25707900      -1.80423500
H       -6.83098100       3.31655200      -0.46627300
H       -8.81882000       3.75461300       2.03869500
H       -8.11554300       5.25460600       1.33056300
H       -6.37257800       3.89151600       3.68914400
H       -4.11218900       2.81991900       3.56192800
H       -2.44667400       1.81215600       2.30929300
