84
Properties=species:S:1:pos:R:3 Conformer=T 337:=T DA1=0 DA2=30 DFT_energy=-54150.2019181105 pbc="F F F"
N       -6.77323900      -5.82869500       0.96078700
C       -5.62861700      -4.98798200       0.92342500
C       -5.66120400      -3.75603000       0.28845900
C       -4.54676200      -2.94041100       0.25651500
C       -4.55788900      -1.70712000      -0.37289400
C       -3.41162200      -0.91960100      -0.37761100
C       -3.38654900      -3.34935800       0.86131700
C       -3.29599100      -4.58591600       1.51883300
C       -4.44474600      -5.36033500       1.51656100
C       -2.27525600      -2.56273200       0.84511100
C       -2.25385200      -1.33668200       0.23203500
C       -1.03284900      -0.55993900       0.25713700
C        0.21388100      -1.18774900       0.29908300
C        1.37867100      -0.43975600       0.32701300
C        2.65733100      -1.16709900       0.37434300
C        3.86170900      -0.52835500       0.41311900
C        5.09142300      -1.14299100       0.46557500
C        5.06217800      -2.53508700       0.47975700
C        6.29699200      -3.17114600       0.53574200
C        6.34155300      -4.53618100       0.55410700
N        7.61872600      -5.19988700       0.61071200
C        5.17219900      -5.25135800       0.51782100
C        3.93738300      -4.59951400       0.46191000
C        3.88353500      -3.22353200       0.44282600
C        2.65026400      -2.55344200       0.38905000
C        1.29492400       0.93817500       0.31238900
C        2.49168000       1.72515900       0.33988800
C        2.50982700       2.96909700       0.91439300
C        3.66914200       3.75627700       0.95412300
C        3.67891400       4.99483000       1.53604100
C        4.83679500       5.77773100       1.58089700
C        5.99871500       5.28858600       1.02229400
N        7.21527100       6.02604700       1.02691100
C        5.97511400       4.04402400       0.44135200
C        4.84752200       3.26474600       0.39134700
C        4.84521900       2.00523600      -0.19465300
C        3.67444800       1.28152700      -0.20054700
C        0.03167200       1.55405100       0.26885400
C       -1.12865700       0.81537100       0.24148500
C       -2.45169000       1.41470900       0.19552600
C       -3.63655600       0.73236300       0.16203600
C       -4.85993700       1.37148700       0.11452900
C       -4.93286200       2.73986500       0.09800500
C       -6.09329500       3.47353400       0.05061700
C       -6.14525800       4.85410200       0.03491300
N       -7.38826100       5.51723200      -0.02120600
C       -4.93724400       5.55358000       0.06941500
C       -3.76438200       4.84453300       0.11663200
C       -3.74315600       3.47508800       0.13095900
C       -2.54753000       2.79778700       0.17848900
H       -7.45876000      -5.80864000       1.76932700
H       -7.01598900      -6.51081900       0.20846500
H       -6.56909700      -3.41762700      -0.19514300
H       -5.48586000      -1.40688300      -0.84129700
H       -3.48293400       0.03309900      -0.88511100
H       -2.38363400      -4.91465800       1.99809400
H       -4.41957200      -6.32567600       2.01076500
H       -1.36790100      -2.92188500       1.34283000
H        0.25573300      -2.26724600       0.30654400
H        3.90805600       0.57430200       0.40752800
H        5.98253300      -0.56348500       0.49144200
H        7.22190700      -2.61665600       0.56638700
H        7.92152400      -5.76161500       1.43059300
H        8.26541500      -5.12073600      -0.18816500
H        5.21502700      -6.33370400       0.53335300
H        3.05199600      -5.17971400       0.44014900
H        1.76812000      -3.14738900       0.36021800
H        1.64029800       3.38929700       1.35615000
H        2.76026800       5.36305400       1.96363300
H        4.86301100       6.75298500       2.03714900
H        7.19789400       7.05151100       0.86069300
H        8.11054400       5.55906600       1.19426000
H        6.87767300       3.64956700      -0.00218100
H        5.77277800       1.63650500      -0.62586200
H        3.74949300       0.28958600      -0.68368900
H       -0.02604200       2.62400700       0.25557000
H       -3.60623100      -0.34492900       0.17340200
H       -5.79955500       0.80383600       0.08556800
H       -7.02723400       2.92129400       0.02887200
H       -7.77926200       5.95663100       0.82853000
H       -7.89860400       5.56053700      -0.92500700
H       -5.00748100       6.62642800       0.05689300
H       -2.82225200       5.40525100       0.14273900
H       -1.64949400       3.41031500       0.20176900
