84
Properties=species:S:1:pos:R:3 Conformer=T 512:=T DA1=50 DA2=-20 DFT_energy=-54155.97137396834 pbc="F F F"
N       -6.67117300      -5.94571100      -0.38298800
C       -5.53519500      -5.09447500      -0.32549000
C       -5.64591700      -3.77331500       0.07976300
C       -4.53848000      -2.94955600       0.13669300
C       -4.62744000      -1.62721600       0.53767700
C       -3.48429200      -0.83634500       0.58094200
C       -3.30665800      -3.44028700      -0.21103600
C       -3.13523100      -4.76923200      -0.62831100
C       -4.28157700      -5.54627600      -0.66655000
C       -2.19979800      -2.64881600      -0.16154100
C       -2.25385200      -1.33668200       0.23203500
C       -1.03284900      -0.55993900       0.25713700
C        0.21388100      -1.18774900       0.29908300
C        1.37867100      -0.43975600       0.32701300
C        2.65733100      -1.16709900       0.37434300
C        3.62821200      -0.88186300       1.28870200
C        4.84026400      -1.52406700       1.39468000
C        5.05614000      -2.54608400       0.47388400
C        6.27535700      -3.20695300       0.56997700
C        6.55221400      -4.22152400      -0.30159600
N        7.81477200      -4.90844400      -0.20688700
C        5.62597500      -4.56873900      -1.25117800
C        4.40391900      -3.89639600      -1.33680800
C        4.11690500      -2.87215500      -0.46208300
C        2.89222500      -2.18812400      -0.53370200
C        1.29492400       0.93817500       0.31238900
C        2.49168000       1.72515900       0.33988800
C        2.49160300       3.03136000      -0.07436700
C        3.64991600       3.82077800      -0.05509900
C        3.63832900       5.12645800      -0.46473400
C        4.79247100       5.91574900      -0.44006000
C        5.97348100       5.36241600       0.00759700
N        7.18855000       6.10045400       0.06033500
C        5.97125300       4.05078900       0.41578300
C        4.84691400       3.26542300       0.39841400
C        4.86311600       1.94249900       0.82194200
C        3.69187600       1.22079300       0.77916400
C        0.03167200       1.55405100       0.26885400
C       -1.12865700       0.81537100       0.24148500
C       -2.45169000       1.41470900       0.19552600
C       -3.50007100       1.09907700       1.01522100
C       -4.73442100       1.70955300       0.90987400
C       -4.95867000       2.67237500      -0.03919700
C       -6.14427000       3.33948200      -0.23008800
C       -6.34991000       4.30812900      -1.19359600
N       -7.60813100       4.93263500      -1.31534000
C       -5.28134900       4.63285000      -2.03174400
C       -4.08684100       3.98097900      -1.86205000
C       -3.91173100       3.02407100      -0.89784100
C       -2.69923600       2.39114600      -0.75719100
H       -6.94649000      -6.57055800       0.42808800
H       -7.30339600      -6.01314800      -1.21121200
H       -6.61141700      -3.36895100       0.35717400
H       -5.61028800      -1.26459700       0.80821800
H       -3.61813400       0.18785600       0.90246400
H       -2.16610000      -5.16282000      -0.90405000
H       -4.19653300      -6.57943000      -0.98610400
H       -1.23198300      -3.07782300      -0.44313700
H        0.25573300      -2.26724600       0.30654400
H        3.47629300      -0.07911000       2.03068600
H        5.54062400      -1.23308400       2.13993000
H        7.00925200      -2.94179100       1.31492900
H        7.88883200      -5.90779300       0.06742700
H        8.68517200      -4.39771100      -0.41719700
H        5.85197900      -5.37481600      -1.93871800
H        3.70739200      -4.19137800      -2.07765300
H        2.20370800      -2.48881300      -1.28690400
H        1.60761200       3.50136200      -0.42856700
H        2.70711800       5.54100100      -0.81592700
H        4.80068200       6.94536500      -0.75597200
H        7.42522500       6.76056500      -0.70631000
H        7.83431400       5.99126300       0.84688300
H        6.89004300       3.60389500       0.76655300
H        5.80368800       1.52657700       1.17493400
H        3.78217800       0.17645400       1.13159500
H       -0.02604200       2.62400700       0.25557000
H       -3.34949300       0.34422000       1.76962500
H       -5.56367000       1.43891400       1.57699300
H       -6.96752800       3.08378600       0.42911700
H       -7.74631900       5.89237100      -0.95782500
H       -8.38688500       4.41778600      -1.77103000
H       -5.46928900       5.39009900      -2.77157200
H       -3.25540200       4.24436400      -2.52690500
H       -1.91581200       2.69600700      -1.44676200
