84
Properties=species:S:1:pos:R:3 Conformer=T 463:=T DA1=30 DA2=210 DFT_energy=-54165.28224513769 pbc="F F F"
N       -8.21335500      -3.51083900      -0.71215200
C       -6.96859500      -2.83154000      -0.62566700
C       -5.88546100      -3.39518600       0.03089700
C       -4.67604200      -2.73247400       0.11061700
C       -3.58244700      -3.27715200       0.76228000
C       -2.38420100      -2.57320400       0.81519900
C       -4.53743400      -1.49728000      -0.46748300
C       -5.59953400      -0.87877100      -1.14497200
C       -6.78717600      -1.59065600      -1.19073400
C       -3.35513900      -0.82483600      -0.40412300
C       -2.25385200      -1.33668200       0.23203500
C       -1.03284900      -0.55993900       0.25713700
C        0.21388100      -1.18774900       0.29908300
C        1.37867100      -0.43975600       0.32701300
C        2.65733100      -1.16709900       0.37434300
C        3.76569000      -0.65986800       0.98612700
C        4.98747100      -1.28612500       1.07433800
C        5.05819000      -2.54224100       0.47754900
C        6.28562000      -3.18950500       0.56083500
C        6.42471100      -4.42618500      -0.00212100
N        7.69499300      -5.10032100       0.08037800
C        5.35524500      -5.00464800      -0.63600100
C        4.12663300      -4.34323100      -0.71240100
C        3.97792800      -3.09601300      -0.14766500
C        2.74894900      -2.41919300      -0.21394200
C        1.29492400       0.93817500       0.31238900
C        2.49168000       1.72515900       0.33988800
C        3.65899200       1.26077500      -0.20737900
C        4.84150400       2.01357500      -0.19330000
C        6.00079600       1.54379600      -0.74835500
C        7.17897800       2.29708500      -0.73953400
C        7.17190200       3.54565300      -0.15439500
N        8.33030600       4.36995900      -0.10444200
C        6.00165400       4.00514100       0.39911500
C        4.83861700       3.27810800       0.39648600
C        3.66291500       3.76296400       0.95541900
C        2.53520900       2.97520100       0.90849900
C        0.03167200       1.55405100       0.26885400
C       -1.12865700       0.81537100       0.24148500
C       -2.45169000       1.41470900       0.19552600
C       -3.59289400       0.87138600       0.71809600
C       -4.82025700       1.49879500       0.63245000
C       -4.94218200       2.71235800       0.00759000
C       -6.11127600       3.41969200      -0.13389500
C       -6.21296800       4.64307500      -0.76785600
N       -7.46214100       5.28921300      -0.86796100
C       -5.04952500       5.20055300      -1.30206200
C       -3.86917200       4.51420500      -1.17449200
C       -3.79818600       3.30211600      -0.54058600
C       -2.59661900       2.64261900      -0.43185800
H       -8.46176700      -4.12501700      -1.53989300
H       -8.95579500      -3.45544600       0.01991600
H       -5.97757300      -4.36974400       0.49394000
H       -3.71717400      -4.25342700       1.20883600
H       -1.56659100      -3.05114500       1.33804100
H       -5.49691100       0.09565300      -1.60336700
H       -7.63615600      -1.14938100      -1.70187500
H       -3.28163200       0.15829600      -0.88167700
H        0.25573300      -2.26724600       0.30654400
H        3.73072200       0.33165900       1.46953700
H        5.80035600      -0.81351600       1.57075600
H        7.13187900      -2.74286500       1.05905800
H        7.82966800      -5.97560700       0.62367200
H        8.50901200      -4.70726500      -0.41515700
H        5.47254400      -5.98595500      -1.07965200
H        3.31833400      -4.81849300      -1.20412700
H        1.94651900      -2.90385800      -0.71692100
H        3.71474300       0.30543700      -0.66783500
H        5.98895300       0.56368500      -1.19732700
H        8.09908700       1.94413200      -1.17404200
H        9.25928500       3.94396400       0.08272200
H        8.26133900       5.38031800      -0.25280400
H        5.98254200       4.98055100       0.86294700
H        3.67770300       4.75138000       1.40828100
H        1.63899200       3.42714000       1.37277400
H       -0.02604200       2.62400700       0.25557000
H       -3.52371700      -0.08297800       1.21409100
H       -5.72484000       1.04325300       1.05690200
H       -7.00932600       2.98074400       0.28861700
H       -7.68082800       6.09094200      -0.25362200
H       -8.15214300       4.95159800      -1.56731400
H       -5.15778900       6.15308200      -1.78895200
H       -2.96249600       4.96212500      -1.59875700
H       -1.73540700       3.13822200      -0.87332400
