84
Properties=species:S:1:pos:R:3 Conformer=T 693:=T DA1=100 DA2=-10 DFT_energy=-54166.49635360732 pbc="F F F"
N       -6.64022900      -6.00311800      -0.11175000
C       -5.50615400      -5.14826700      -0.07358800
C       -5.64100100      -3.78240200       0.12181300
C       -4.53556100      -2.95492400       0.16077100
C       -4.64833200      -1.58843300       0.35382900
C       -3.50639200      -0.79535300       0.38747800
C       -3.28165900      -3.48657200       0.00521100
C       -3.08533200      -4.86166700      -0.19522000
C       -4.23078700      -5.64034500      -0.22624200
C       -2.17642100      -2.69212500       0.04151800
C       -2.25385200      -1.33668200       0.23203500
C       -1.03284900      -0.55993900       0.25713700
C        0.21388100      -1.18774900       0.29908300
C        1.37867100      -0.43975600       0.32701300
C        2.65733100      -1.16709900       0.37434300
C        3.15536700      -1.69755600       1.52785900
C        4.33648300      -2.39353400       1.64320700
C        5.05475200      -2.54939400       0.46050500
C        6.24937200      -3.25328600       0.55996300
C        7.00381200      -3.44459700      -0.56247400
N        8.24312300      -4.17215700      -0.46425500
C        6.57052200      -2.94149100      -1.76219300
C        5.36741400      -2.23588000      -1.84845500
C        4.60082300      -2.03831800      -0.72155700
C        3.38807500      -1.33324100      -0.79211400
C        1.29492400       0.93817500       0.31238900
C        2.49168000       1.72515900       0.33988800
C        2.45673800       3.07752900       0.12162100
C        3.61445000       3.86771800       0.14502500
C        3.56849100       5.21878600      -0.06767300
C        4.72256700       6.00802300      -0.03856700
C        5.93895400       5.40786300       0.20956400
N        7.15617600       6.14295200       0.25306800
C        5.97100100       4.05098000       0.42128600
C        4.84730500       3.26487400       0.39710800
C        4.89912300       1.89478000       0.62054500
C        3.72654200       1.17485900       0.58505100
C        0.03167200       1.55405100       0.26885400
C       -1.12865700       0.81537100       0.24148500
C       -2.45169000       1.41470900       0.19552600
C       -3.13389900       1.92653200       1.26475600
C       -4.39426800       2.47851900       1.14567600
C       -5.02024100       2.53392800      -0.07216500
C       -6.26897000       3.05877600      -0.30092300
C       -6.88282200       3.10533500      -1.53782800
N       -8.17249300       3.65961400      -1.67000700
C       -6.18868500       2.58392600      -2.63147500
C       -4.94018200       2.05370300      -2.42976900
C       -4.35605600       2.02072400      -1.19132500
C       -3.10222300       1.48086100      -1.02709800
H       -6.99592500      -6.50334100       0.75273600
H       -7.19335100      -6.19371700      -0.97658400
H       -6.62406300      -3.34546700       0.24564100
H       -5.64844100      -1.19386600       0.47538000
H       -3.65941000       0.26439800       0.54172200
H       -2.09870300      -5.28768300      -0.31863900
H       -4.12662500      -6.70885300      -0.38179600
H       -1.19090900      -3.15404200      -0.08260900
H        0.25573300      -2.26724600       0.30654400
H        2.60038600      -1.58998200       2.47572900
H        4.64900500      -2.77146800       2.58664000
H        6.59719800      -3.65418700       1.49919800
H        8.38746500      -5.09535600      -0.91845800
H        9.02388000      -3.77019600       0.07567100
H        7.17362100      -3.09757100      -2.64845500
H        5.05747600      -1.86431600      -2.79020500
H        3.09101800      -0.95857900      -1.74246500
H        1.54464200       3.58476100      -0.07483500
H        2.60947700       5.67022300      -0.26472900
H        4.70427400       7.07257700      -0.20094000
H        7.32084700       6.90958700      -0.42859100
H        7.87380000       5.92760200       0.95037100
H        6.91749400       3.56746700       0.61440900
H        5.86762300       1.44181400       0.81828100
H        3.84633400       0.09146100       0.77187700
H       -0.02604200       2.62400700       0.25557000
H       -2.66345600       1.89424200       2.23390500
H       -4.92545800       2.88159500       2.01820900
H       -6.79875900       3.46593300       0.55419800
H       -8.29108400       4.60439700      -2.07166200
H       -8.99572400       3.10502200      -1.36357800
H       -6.68971400       2.63391400      -3.58150800
H       -4.40540000       1.64674600      -3.29642300
H       -2.62514300       1.09356400      -1.92409200
