84
Properties=species:S:1:pos:R:3 Conformer=T 912:=T DA1=160 DA2=20 DFT_energy=-54086.93950104253 pbc="F F F"
N       -6.70273600      -5.93145600       0.71120200
C       -5.56336700      -5.08304900       0.69126900
C       -5.65036300      -3.77181600       0.24962300
C       -4.54063200      -2.94932300       0.23415200
C       -4.60573700      -1.63736800      -0.20382100
C       -3.46188700      -0.84634000      -0.19955700
C       -3.33058600      -3.43088600       0.66194000
C       -3.18378400      -4.74940100       1.11972900
C       -4.33071500      -5.52647200       1.11073400
C       -2.22263300      -2.63940600       0.65801000
C       -2.25385200      -1.33668200       0.23203500
C       -1.03284900      -0.55993900       0.25713700
C        0.21388100      -1.18774900       0.29908300
C        1.37867100      -0.43975600       0.32701300
C        2.65733100      -1.16709900       0.37434300
C        2.74537700      -2.46717900       0.77691500
C        3.90268900      -3.20850300       0.83852900
C        5.06032200      -2.54041800       0.44797400
C        6.23797800      -3.27710600       0.50171200
C        7.41099500      -2.68365400       0.13091600
N        8.63411600      -3.44247200       0.18616400
C        7.40551700      -1.37755600      -0.28652900
C        6.21453300      -0.64824500      -0.33613300
C        5.02749200      -1.23893100       0.03618000
C        3.82167800      -0.52009300      -0.01022200
C        1.29492400       0.93817500       0.31238900
C        2.49168000       1.72515900       0.33988800
C        2.46790000       3.03939900       0.72715500
C        3.62622400       3.82821700       0.76309100
C        3.59334600       5.13817400       1.15763700
C        4.74971200       5.92349700       1.19910400
C        5.95440800       5.36264800       0.83098300
N        7.17254000       6.09738400       0.84501700
C        5.97336600       4.04683700       0.43694500
C        4.84767700       3.26446000       0.39278000
C        4.88816200       1.93320200      -0.00203600
C        3.71586900       1.21205400      -0.01494200
C        0.03167200       1.55405100       0.26885400
C       -1.12865700       0.81537100       0.24148500
C       -2.45169000       1.41470900       0.19552600
C       -2.76031400       2.69699400       0.55763200
C       -4.04562100       3.19797100       0.49123900
C       -5.07944400       2.41277700       0.05223100
C       -6.39050900       2.80961000      -0.05147000
C       -7.41891200       2.00172400      -0.49713900
N       -8.73624900       2.50010300      -0.56186500
C       -7.10691600       0.69217100      -0.86793300
C       -5.80524800       0.27108900      -0.77342100
C       -4.80563300       1.09451900      -0.32758800
C       -3.51147200       0.63734300      -0.24599800
H       -7.30964900      -6.03672900       1.57413500
H       -7.01733800      -6.49849900      -0.10714800
H       -6.59814600      -3.37527700      -0.09260800
H       -5.57223900      -1.28100400      -0.53481300
H       -3.57661100       0.16962200      -0.55302100
H       -2.23192500      -5.13570400       1.45868600
H       -4.26321800      -6.55344900       1.45354100
H       -1.27414700      -3.05854300       1.01115000
H        0.25573300      -2.26724600       0.30654400
H        1.83994000      -3.01726000       1.08615100
H        3.87795500      -4.21931100       1.16750700
H        6.25152800      -4.30560500       0.82709300
H        9.17268800      -3.69842800      -0.66463400
H        8.99812000      -3.74878100       1.10068700
H        8.33942900      -0.91348100      -0.57977300
H        6.24238100       0.35683800      -0.66786800
H        3.86363700       0.49105000      -0.33826400
H        1.56465900       3.51613000       1.01815800
H        2.64202600       5.56124600       1.43752300
H        4.74244600       6.95476000       1.50961800
H        7.18162500       7.08776800       0.53107000
H        8.04296800       5.66291700       1.16311100
H        6.90991800       3.59543700       0.14362300
H        5.84869300       1.50913600      -0.28455900
H        3.82631800       0.16074500      -0.33983600
H       -0.02604200       2.62400700       0.25557000
H       -1.96483000       3.33471100       0.90710200
H       -4.27179400       4.23033900       0.78958400
H       -6.62252500       3.83044900       0.23443500
H       -9.14544200       2.76429100      -1.47333200
H       -9.28625800       2.59235600       0.31458200
H       -7.92610500       0.08633500      -1.21142200
H       -5.57298400      -0.75972500      -1.06696900
H       -3.34639900      -0.39327900      -0.55058100
