84
Properties=species:S:1:pos:R:3 Conformer=T 700:=T DA1=100 DA2=60 DFT_energy=-54167.91926875825 pbc="F F F"
N       -7.10421200      -5.32684300       1.53078200
C       -5.93556500      -4.52262900       1.45423800
C       -5.71234700      -3.67850900       0.37739700
C       -4.57589800      -2.89627200       0.30794100
C       -4.33343600      -2.04747500      -0.75884900
C       -3.17559200      -1.27748400      -0.78430600
C       -3.64995500      -2.95003400       1.31732600
C       -3.82376700      -3.78576500       2.43130200
C       -4.98123400      -4.54699200       2.44452300
C       -2.52273600      -2.18752900       1.27284200
C       -2.25385200      -1.33668200       0.23203500
C       -1.03284900      -0.55993900       0.25713700
C        0.21388100      -1.18774900       0.29908300
C        1.37867100      -0.43975600       0.32701300
C        2.65733100      -1.16709900       0.37434300
C        3.15536700      -1.69755600       1.52785900
C        4.33648300      -2.39353400       1.64320700
C        5.05475200      -2.54939400       0.46050500
C        6.24937200      -3.25328600       0.55996300
C        7.00381200      -3.44459700      -0.56247400
N        8.24312300      -4.17215700      -0.46425500
C        6.57052200      -2.94149100      -1.76219300
C        5.36741400      -2.23588000      -1.84845500
C        4.60082300      -2.03831800      -0.72155700
C        3.38807500      -1.33324100      -0.79211400
C        1.29492400       0.93817500       0.31238900
C        2.49168000       1.72515900       0.33988800
C        2.73266800       2.61487100       1.35384300
C        3.89689500       3.39428000       1.40222100
C        4.13161900       4.27542900       2.42262100
C        5.29566700       5.04872300       2.47403500
C        6.23054100       4.92045700       1.46859300
N        7.43739200       5.67348300       1.45012300
C        5.98250600       4.03247100       0.45028800
C        4.84628400       3.26675700       0.38767800
C        4.61650900       2.36884100      -0.64707600
C        3.45395000       1.63206700      -0.63642700
C        0.03167200       1.55405100       0.26885400
C       -1.12865700       0.81537100       0.24148500
C       -2.45169000       1.41470900       0.19552600
C       -3.13389900       1.92653200       1.26475600
C       -4.39426800       2.47851900       1.14567600
C       -5.02024100       2.53392800      -0.07216500
C       -6.26897000       3.05877600      -0.30092300
C       -6.88282200       3.10533500      -1.53782800
N       -8.17249300       3.65961400      -1.67000700
C       -6.18868500       2.58392600      -2.63147500
C       -4.94018200       2.05370300      -2.42976900
C       -4.35605600       2.02072400      -1.19132500
C       -3.10222300       1.48086100      -1.02709800
H       -7.97723700      -5.00228100       2.03730500
H       -7.18447600      -6.27479300       1.10048200
H       -6.43289200      -3.62417200      -0.42915200
H       -5.07997800      -2.02227700      -1.54161100
H       -3.04291700      -0.63406800      -1.64377600
H       -3.09710500      -3.83296800       3.23123500
H       -5.15560000      -5.20986700       3.28532500
H       -1.80790700      -2.25469300       2.10019800
H        0.25573300      -2.26724600       0.30654400
H        2.60038600      -1.58998200       2.47572900
H        4.64900500      -2.77146800       2.58664000
H        6.59719800      -3.65418700       1.49919800
H        8.38746500      -5.09535600      -0.91845800
H        9.02388000      -3.77019600       0.07567100
H        7.17362100      -3.09757100      -2.64845500
H        5.05747600      -1.86431600      -2.79020500
H        3.09101800      -0.95857900      -1.74246500
H        2.04242600       2.75006500       2.14951000
H        3.38763000       4.36591500       3.19762300
H        5.49772100       5.74468500       3.27077000
H        7.42791200       6.67097800       1.74067500
H        8.31852100       5.24415800       1.15536500
H        6.70528500       3.92369900      -0.34513000
H        5.36802200       2.28003400      -1.42785200
H        3.34074700       0.93937100      -1.49104000
H       -0.02604200       2.62400700       0.25557000
H       -2.66345600       1.89424200       2.23390500
H       -4.92545800       2.88159500       2.01820900
H       -6.79875900       3.46593300       0.55419800
H       -8.29108400       4.60439700      -2.07166200
H       -8.99572400       3.10502200      -1.36357800
H       -6.68971400       2.63391400      -3.58150800
H       -4.40540000       1.64674600      -3.29642300
H       -2.62514300       1.09356400      -1.92409200
