84
Properties=species:S:1:pos:R:3 Conformer=T 756:=T DA1=110 DA2=260 DFT_energy=-54168.02509670954 pbc="F F F"
N       -7.59686100      -4.45582100      -1.45833200
C       -6.39651600      -3.70834000      -1.32122600
C       -5.79006700      -3.54136900      -0.08579500
C       -4.62158000      -2.81589700       0.04291200
C       -4.00043900      -2.63641300       1.26735300
C       -2.82387900      -1.89926000       1.34766500
C       -4.04643300      -2.24979400      -1.06517200
C       -4.61592000      -2.38632500      -2.34057200
C       -5.78726200      -3.12317400      -2.40676600
C       -2.89393300      -1.53171800      -0.96453300
C       -2.25385200      -1.33668200       0.23203500
C       -1.03284900      -0.55993900       0.25713700
C        0.21388100      -1.18774900       0.29908300
C        1.37867100      -0.43975600       0.32701300
C        2.65733100      -1.16709900       0.37434300
C        3.06143600      -1.86622900       1.47340600
C        4.23672800      -2.57275400       1.58403300
C        5.05519700      -2.54879100       0.45774800
C        6.24539500      -3.26075000       0.55270000
C        7.09518500      -3.28097100      -0.51645500
N        8.33029900      -4.01618200      -0.42243600
C        6.75986100      -2.60195800      -1.65955700
C        5.56005900      -1.89028500      -1.74198500
C        4.69770700      -1.86454700      -0.66854300
C        3.48696700      -1.15576600      -0.73641700
C        1.29492400       0.93817500       0.31238900
C        2.49168000       1.72515900       0.33988800
C        3.23027100       1.93327200      -0.79542700
C        4.40349600       2.70059100      -0.79264900
C        5.13080500       2.90817700      -1.93311600
C        6.29799700       3.67843400      -1.93160500
C        6.72759000       4.24208000      -0.74876500
N        7.90528100       5.03594100      -0.66688500
C        5.98831200       4.02579600       0.38863300
C        4.84119100       3.27401100       0.40171700
C        4.10314600       3.07234400       1.56119400
C        2.95958700       2.30946500       1.49204600
C        0.03167200       1.55405100       0.26885400
C       -1.12865700       0.81537100       0.24148500
C       -2.45169000       1.41470900       0.19552600
C       -3.05519100       2.09654600       1.21607000
C       -4.32098100       2.63688300       1.10113400
C       -5.03309100       2.50630800      -0.06243700
C       -6.29517000       3.00239900      -0.28191900
C       -6.99656100       2.85993900      -1.46372600
N       -8.29252200       3.40079900      -1.58984000
C       -6.38292100       2.16464800      -2.50764800
C       -5.12301600       1.65898000      -2.31394200
C       -4.45116500       1.81542400      -1.13065100
C       -3.18864300       1.29426000      -0.97270800
H       -7.59121000      -5.48834600      -1.69903800
H       -8.55027900      -4.04919300      -1.33240900
H       -6.23119300      -3.98096000       0.80010800
H       -4.47339800      -3.09432000       2.12601800
H       -2.38633200      -1.79465700       2.33147900
H       -4.16727600      -1.94225500      -3.21902400
H       -6.26411300      -3.25217200      -3.37254300
H       -2.46210500      -1.09792100      -1.87302300
H        0.25573300      -2.26724600       0.30654400
H        2.42628200      -1.90259400       2.37523200
H        4.47210200      -3.08919500       2.48317700
H        6.51657800      -3.79929300       1.44729300
H        8.52406400      -4.86028500      -0.99634700
H        9.05717700      -3.70115100       0.23717000
H        7.43827900      -2.62289600      -2.50386600
H        5.32719200      -1.38039700      -2.64020800
H        3.26763000      -0.64152900      -1.64153200
H        2.94104000       1.51909500      -1.72955900
H        4.78247700       2.45602500      -2.84775300
H        6.88079200       3.85429300      -2.82008600
H        8.75026200       4.76307200      -1.20638000
H        7.93124300       5.87636600      -0.08327200
H        6.31466400       4.45943500       1.32264700
H        4.45700000       3.52878100       2.48245600
H        2.42557400       2.19323500       2.45346400
H       -0.02604200       2.62400700       0.25557000
H       -2.51613100       2.21242300       2.14213400
H       -4.78800600       3.17859600       1.93443100
H       -6.76205200       3.54537600       0.53348400
H       -8.43994700       4.27157700      -2.12651100
H       -9.09141600       2.91080100      -1.14167400
H       -6.95111300       2.06960700      -3.41551200
H       -4.65198500       1.11432300      -3.14108900
H       -2.77735400       0.76487100      -1.82874000
